  10  10   0   0
  0.1062640E+02  0.5279518E-09  0.5279518E-09  0.5279518E-09  0.5000000E-15
  1.000000000000000E-004
  CAR 
 LaNiO3                                  
     13.64871392    -24.67291752  301      7.18239727      1.00000000
    -24.673  0.0000E+00  0.0000E+00
    -24.545  0.0000E+00  0.0000E+00
    -24.417  0.0000E+00  0.0000E+00
    -24.290  0.0000E+00  0.0000E+00
    -24.162  0.0000E+00  0.0000E+00
    -24.034  0.0000E+00  0.0000E+00
    -23.906  0.0000E+00  0.0000E+00
    -23.779  0.0000E+00  0.0000E+00
    -23.651  0.0000E+00  0.0000E+00
    -23.523  0.0000E+00  0.0000E+00
    -23.396  0.0000E+00  0.0000E+00
    -23.268  0.0000E+00  0.0000E+00
    -23.140  0.1071E-09  0.1369E-10
    -23.012  0.2116E-02  0.2703E-03
    -22.885  0.1757E+01  0.2247E+00
    -22.757  0.1525E+02  0.2173E+01
    -22.629  0.1367E+02  0.3919E+01
    -22.501  0.6302E+00  0.4000E+01
    -22.374  0.3413E-04  0.4000E+01
    -22.246  0.2511E-13  0.4000E+01
    -22.118  0.0000E+00  0.4000E+01
    -21.990  0.0000E+00  0.4000E+01
    -21.863  0.0000E+00  0.4000E+01
    -21.735  0.0000E+00  0.4000E+01
    -21.607  0.0000E+00  0.4000E+01
    -21.479  0.0000E+00  0.4000E+01
    -21.352  0.0000E+00  0.4000E+01
    -21.224  0.0000E+00  0.4000E+01
    -21.096  0.0000E+00  0.4000E+01
    -20.968  0.0000E+00  0.4000E+01
    -20.841  0.0000E+00  0.4000E+01
    -20.713  0.0000E+00  0.4000E+01
    -20.585  0.0000E+00  0.4000E+01
    -20.458  0.0000E+00  0.4000E+01
    -20.330  0.0000E+00  0.4000E+01
    -20.202  0.0000E+00  0.4000E+01
    -20.074  0.0000E+00  0.4000E+01
    -19.947  0.0000E+00  0.4000E+01
    -19.819  0.0000E+00  0.4000E+01
    -19.691  0.0000E+00  0.4000E+01
    -19.563  0.0000E+00  0.4000E+01
    -19.436  0.0000E+00  0.4000E+01
    -19.308  0.0000E+00  0.4000E+01
    -19.180  0.0000E+00  0.4000E+01
    -19.052  0.0000E+00  0.4000E+01
    -18.925  0.0000E+00  0.4000E+01
    -18.797  0.0000E+00  0.4000E+01
    -18.669  0.0000E+00  0.4000E+01
    -18.541  0.0000E+00  0.4000E+01
    -18.414  0.0000E+00  0.4000E+01
    -18.286  0.0000E+00  0.4000E+01
    -18.158  0.0000E+00  0.4000E+01
    -18.031  0.0000E+00  0.4000E+01
    -17.903  0.0000E+00  0.4000E+01
    -17.775  0.0000E+00  0.4000E+01
    -17.647  0.0000E+00  0.4000E+01
    -17.520  0.0000E+00  0.4000E+01
    -17.392  0.0000E+00  0.4000E+01
    -17.264  0.0000E+00  0.4000E+01
    -17.136  0.0000E+00  0.4000E+01
    -17.009  0.0000E+00  0.4000E+01
    -16.881  0.0000E+00  0.4000E+01
    -16.753  0.0000E+00  0.4000E+01
    -16.625  0.0000E+00  0.4000E+01
    -16.498  0.0000E+00  0.4000E+01
    -16.370  0.0000E+00  0.4000E+01
    -16.242  0.0000E+00  0.4000E+01
    -16.114  0.0000E+00  0.4000E+01
    -15.987  0.0000E+00  0.4000E+01
    -15.859  0.0000E+00  0.4000E+01
    -15.731  0.0000E+00  0.4000E+01
    -15.603  0.0000E+00  0.4000E+01
    -15.476  0.0000E+00  0.4000E+01
    -15.348  0.0000E+00  0.4000E+01
    -15.220  0.0000E+00  0.4000E+01
    -15.093  0.0000E+00  0.4000E+01
    -14.965  0.0000E+00  0.4000E+01
    -14.837  0.0000E+00  0.4000E+01
    -14.709  0.0000E+00  0.4000E+01
    -14.582  0.0000E+00  0.4000E+01
    -14.454  0.0000E+00  0.4000E+01
    -14.326  0.0000E+00  0.4000E+01
    -14.198  0.0000E+00  0.4000E+01
    -14.071  0.0000E+00  0.4000E+01
    -13.943  0.0000E+00  0.4000E+01
    -13.815  0.0000E+00  0.4000E+01
    -13.687  0.0000E+00  0.4000E+01
    -13.560  0.0000E+00  0.4000E+01
    -13.432  0.0000E+00  0.4000E+01
    -13.304  0.0000E+00  0.4000E+01
    -13.176  0.0000E+00  0.4000E+01
    -13.049  0.0000E+00  0.4000E+01
    -12.921  0.0000E+00  0.4000E+01
    -12.793  0.0000E+00  0.4000E+01
    -12.665  0.0000E+00  0.4000E+01
    -12.538  0.0000E+00  0.4000E+01
    -12.410  0.0000E+00  0.4000E+01
    -12.282  0.0000E+00  0.4000E+01
    -12.155  0.0000E+00  0.4000E+01
    -12.027  0.0000E+00  0.4000E+01
    -11.899  0.5093E-17  0.4000E+01
    -11.771  0.1391E-06  0.4000E+01
    -11.644  0.1401E-01  0.4002E+01
    -11.516  0.8013E+00  0.4104E+01
    -11.388  0.1856E+01  0.4341E+01
    -11.260  0.3403E+01  0.4776E+01
    -11.133  0.6912E+01  0.5659E+01
    -11.005  0.6056E+01  0.6432E+01
    -10.877  0.3582E+01  0.6890E+01
    -10.749  0.2668E+01  0.7231E+01
    -10.622  0.1618E+01  0.7437E+01
    -10.494  0.2487E+01  0.7755E+01
    -10.366  0.2530E+01  0.8078E+01
    -10.238  0.5099E+01  0.8730E+01
    -10.111  0.6992E+01  0.9623E+01
     -9.983  0.7192E+01  0.1054E+02
     -9.855  0.8371E+01  0.1161E+02
     -9.727  0.6362E+01  0.1242E+02
     -9.600  0.9992E+01  0.1370E+02
     -9.472  0.9707E+01  0.1494E+02
     -9.344  0.7136E+01  0.1585E+02
     -9.217  0.1160E+01  0.1600E+02
     -9.089  0.1455E-02  0.1600E+02
     -8.961  0.1037E-09  0.1600E+02
     -8.833  0.0000E+00  0.1600E+02
     -8.706  0.0000E+00  0.1600E+02
     -8.578  0.0000E+00  0.1600E+02
     -8.450  0.0000E+00  0.1600E+02
     -8.322  0.0000E+00  0.1600E+02
     -8.195  0.0000E+00  0.1600E+02
     -8.067  0.0000E+00  0.1600E+02
     -7.939  0.0000E+00  0.1600E+02
     -7.811  0.0000E+00  0.1600E+02
     -7.684  0.0000E+00  0.1600E+02
     -7.556  0.1315E-13  0.1600E+02
     -7.428  0.6160E-05  0.1600E+02
     -7.300  0.1769E-01  0.1600E+02
     -7.173  0.2660E+00  0.1604E+02
     -7.045  0.5871E+00  0.1611E+02
     -6.917  0.1608E+01  0.1632E+02
     -6.789  0.3345E+01  0.1674E+02
     -6.662  0.5068E+01  0.1739E+02
     -6.534  0.7028E+01  0.1829E+02
     -6.406  0.9860E+01  0.1955E+02
     -6.279  0.1467E+02  0.2142E+02
     -6.151  0.9712E+01  0.2266E+02
     -6.023  0.9381E+01  0.2386E+02
     -5.895  0.1009E+02  0.2515E+02
     -5.768  0.9072E+01  0.2631E+02
     -5.640  0.8136E+01  0.2735E+02
     -5.512  0.3545E+01  0.2780E+02
     -5.384  0.1438E+01  0.2798E+02
     -5.257  0.1244E+00  0.2800E+02
     -5.129  0.8399E-04  0.2800E+02
     -5.001  0.7793E-12  0.2800E+02
     -4.873  0.0000E+00  0.2800E+02
     -4.746  0.0000E+00  0.2800E+02
     -4.618  0.0000E+00  0.2800E+02
     -4.490  0.0000E+00  0.2800E+02
     -4.362  0.0000E+00  0.2800E+02
     -4.235  0.0000E+00  0.2800E+02
     -4.107  0.0000E+00  0.2800E+02
     -3.979  0.0000E+00  0.2800E+02
     -3.851  0.0000E+00  0.2800E+02
     -3.724  0.0000E+00  0.2800E+02
     -3.596  0.0000E+00  0.2800E+02
     -3.468  0.0000E+00  0.2800E+02
     -3.341  0.0000E+00  0.2800E+02
     -3.213  0.0000E+00  0.2800E+02
     -3.085  0.0000E+00  0.2800E+02
     -2.957  0.0000E+00  0.2800E+02
     -2.830  0.0000E+00  0.2800E+02
     -2.702  0.0000E+00  0.2800E+02
     -2.574  0.0000E+00  0.2800E+02
     -2.446  0.0000E+00  0.2800E+02
     -2.319  0.0000E+00  0.2800E+02
     -2.191  0.0000E+00  0.2800E+02
     -2.063  0.0000E+00  0.2800E+02
     -1.935  0.0000E+00  0.2800E+02
     -1.808  0.0000E+00  0.2800E+02
     -1.680  0.0000E+00  0.2800E+02
     -1.552  0.0000E+00  0.2800E+02
     -1.424  0.0000E+00  0.2800E+02
     -1.297  0.0000E+00  0.2800E+02
     -1.169  0.0000E+00  0.2800E+02
     -1.041  0.0000E+00  0.2800E+02
     -0.914  0.0000E+00  0.2800E+02
     -0.786  0.0000E+00  0.2800E+02
     -0.658  0.0000E+00  0.2800E+02
     -0.530  0.0000E+00  0.2800E+02
     -0.403  0.0000E+00  0.2800E+02
     -0.275  0.2835E-11  0.2800E+02
     -0.147  0.8839E-04  0.2800E+02
     -0.019  0.2487E-01  0.2800E+02
      0.108  0.2620E+00  0.2804E+02
      0.236  0.2119E+00  0.2806E+02
      0.364  0.7456E+00  0.2816E+02
      0.492  0.7355E+00  0.2825E+02
      0.619  0.2015E+01  0.2851E+02
      0.747  0.2874E+01  0.2888E+02
      0.875  0.4200E+01  0.2941E+02
      1.003  0.4269E+01  0.2996E+02
      1.130  0.5145E+01  0.3062E+02
      1.258  0.2622E+01  0.3095E+02
      1.386  0.2134E+01  0.3122E+02
      1.514  0.4012E+01  0.3174E+02
      1.641  0.6415E+01  0.3256E+02
      1.769  0.6886E+01  0.3344E+02
      1.897  0.6042E+01  0.3421E+02
      2.024  0.7442E+01  0.3516E+02
      2.152  0.7850E+01  0.3616E+02
      2.280  0.6922E+01  0.3704E+02
      2.408  0.1012E+02  0.3834E+02
      2.535  0.9946E+01  0.3961E+02
      2.663  0.1100E+02  0.4101E+02
      2.791  0.8632E+01  0.4212E+02
      2.919  0.4992E+01  0.4275E+02
      3.046  0.1189E+02  0.4427E+02
      3.174  0.1277E+02  0.4590E+02
      3.302  0.8853E+01  0.4704E+02
      3.430  0.5558E+01  0.4775E+02
      3.557  0.6336E+01  0.4855E+02
      3.685  0.4595E+01  0.4914E+02
      3.813  0.4411E+01  0.4970E+02
      3.941  0.3151E+01  0.5011E+02
      4.068  0.1746E+01  0.5033E+02
      4.196  0.5948E+01  0.5109E+02
      4.324  0.3038E+01  0.5148E+02
      4.452  0.2918E+01  0.5185E+02
      4.579  0.7931E+01  0.5286E+02
      4.707  0.4444E+01  0.5343E+02
      4.835  0.4990E+01  0.5407E+02
      4.962  0.5549E+01  0.5478E+02
      5.090  0.5094E+01  0.5543E+02
      5.218  0.8154E+01  0.5647E+02
      5.346  0.1087E+02  0.5786E+02
      5.473  0.9222E+01  0.5904E+02
      5.601  0.8693E+01  0.6015E+02
      5.729  0.8593E+01  0.6124E+02
      5.857  0.7620E+01  0.6222E+02
      5.984  0.1344E+02  0.6393E+02
      6.112  0.1260E+02  0.6555E+02
      6.240  0.1545E+02  0.6752E+02
      6.368  0.1579E+02  0.6953E+02
      6.495  0.1626E+02  0.7161E+02
      6.623  0.1512E+02  0.7354E+02
      6.751  0.1365E+02  0.7529E+02
      6.879  0.8129E+01  0.7632E+02
      7.006  0.6294E+01  0.7713E+02
      7.134  0.5284E+01  0.7780E+02
      7.262  0.2914E+01  0.7818E+02
      7.390  0.2660E+01  0.7852E+02
      7.517  0.3133E+01  0.7892E+02
      7.645  0.1145E+01  0.7906E+02
      7.773  0.1537E+01  0.7926E+02
      7.900  0.2587E+01  0.7959E+02
      8.028  0.2632E+01  0.7993E+02
      8.156  0.8690E+00  0.8004E+02
      8.284  0.2845E+01  0.8040E+02
      8.411  0.3463E+01  0.8084E+02
      8.539  0.1666E+01  0.8105E+02
      8.667  0.2239E+01  0.8134E+02
      8.795  0.8975E+00  0.8146E+02
      8.922  0.3784E+01  0.8194E+02
      9.050  0.2572E+01  0.8227E+02
      9.178  0.1099E+01  0.8241E+02
      9.306  0.8554E+00  0.8252E+02
      9.433  0.3612E+01  0.8298E+02
      9.561  0.2248E+01  0.8327E+02
      9.689  0.8021E+00  0.8337E+02
      9.817  0.2246E+01  0.8366E+02
      9.944  0.2083E+01  0.8392E+02
     10.072  0.6119E+00  0.8400E+02
     10.200  0.5068E-02  0.8400E+02
     10.328  0.5650E-09  0.8400E+02
     10.455  0.0000E+00  0.8400E+02
     10.583  0.0000E+00  0.8400E+02
     10.711  0.0000E+00  0.8400E+02
     10.838  0.9943E-10  0.8400E+02
     10.966  0.6466E-03  0.8400E+02
     11.094  0.6673E-01  0.8401E+02
     11.222  0.7024E+00  0.8410E+02
     11.349  0.8203E+00  0.8420E+02
     11.477  0.2199E+01  0.8448E+02
     11.605  0.7095E+01  0.8539E+02
     11.733  0.3248E+02  0.8954E+02
     11.860  0.1744E+02  0.9177E+02
     11.988  0.1824E+01  0.9200E+02
     12.116  0.4514E-02  0.9200E+02
     12.244  0.2676E-09  0.9200E+02
     12.371  0.0000E+00  0.9200E+02
     12.499  0.0000E+00  0.9200E+02
     12.627  0.0000E+00  0.9200E+02
     12.755  0.0000E+00  0.9200E+02
     12.882  0.0000E+00  0.9200E+02
     13.010  0.0000E+00  0.9200E+02
     13.138  0.0000E+00  0.9200E+02
     13.265  0.0000E+00  0.9200E+02
     13.393  0.0000E+00  0.9200E+02
     13.521  0.0000E+00  0.9200E+02
     13.649  0.0000E+00  0.9200E+02
