   10   10    1    1
  0.1062640E+02  0.5279518E-09  0.5279518E-09  0.5279518E-09  0.5000000E-15
  1.000000000000000E-004
  CAR 
 LaNiO3                                  
     78     65     46
 
  0.0000000E+00  0.0000000E+00  0.0000000E+00  0.1953125E-02
    1      -22.931025   1.000000
    2      -22.627574   1.000000
    3      -10.937669   1.000000
    4       -9.878806   1.000000
    5       -9.878806   1.000000
    6       -9.695466   1.000000
    7       -9.695466   1.000000
    8       -9.623579   1.000000
    9       -7.303089   1.000000
   10       -6.959822   1.000000
   11       -6.959822   1.000000
   12       -6.577148   1.000000
   13       -6.448473   1.000000
   14       -6.448473   1.000000
   15       -0.049495   1.000000
   16        1.468920   1.000000
   17        1.468920   1.000000
   18        2.886410   1.000000
   19        2.886410   1.000000
   20        3.033403   1.000000
   21        3.033403   1.000000
   22        3.105031   1.000000
   23        3.126050   1.000000
   24        4.578545   1.000000
   25        4.632766   1.000000
   26        4.632766   1.000000
   27        5.070162   1.000000
   28        5.291483   1.000000
   29        5.291483   1.000000
   30        5.303918   1.000000
   31        5.303918   1.000000
   32        6.297496   1.000000
   33        6.384485   1.000000
   34        6.384485   1.000000
   35        6.524840   1.000000
   36        6.524840   1.000000
   37        6.701261   1.000000
   38        7.021491   0.999997
   39        7.088545   0.996029
   40        7.088545   0.996029
   41        9.991069   0.000000
   42        9.991069   0.000000
   43       11.047707   0.000000
   44       11.047707   0.000000
   45       11.772572   0.000000
   46       11.772572   0.000000
 
  0.1250000E+00  0.6938894E-17  0.0000000E+00  0.1171875E-01
    1      -22.917832   1.000000
    2      -22.637536   1.000000
    3      -10.991461   1.000000
    4      -10.079874   1.000000
    5       -9.898813   1.000000
    6       -9.753583   1.000000
    7       -9.676424   1.000000
    8       -9.577206   1.000000
    9       -7.215442   1.000000
   10       -6.957898   1.000000
   11       -6.775462   1.000000
   12       -6.487937   1.000000
   13       -6.404631   1.000000
   14       -6.336124   1.000000
   15        0.083246   1.000000
   16        1.507485   1.000000
   17        1.507717   1.000000
   18        2.664056   1.000000
   19        2.784276   1.000000
   20        2.915827   1.000000
   21        2.991159   1.000000
   22        3.032475   1.000000
   23        3.111996   1.000000
   24        4.292584   1.000000
   25        4.324370   1.000000
   26        4.588497   1.000000
   27        5.180129   1.000000
   28        5.257624   1.000000
   29        5.332478   1.000000
   30        5.379236   1.000000
   31        5.457145   1.000000
   32        6.185489   1.000000
   33        6.336147   1.000000
   34        6.352078   1.000000
   35        6.394063   1.000000
   36        6.660789   1.000000
   37        6.820794   1.000000
   38        6.951383   1.000000
   39        7.035370   0.999984
   40        7.078222   0.998393
   41        9.834307   0.000000
   42        9.844701   0.000000
   43       11.156892   0.000000
   44       11.170852   0.000000
   45       11.764694   0.000000
   46       11.767497   0.000000
 
  0.2500000E+00  0.1387779E-16  0.0000000E+00  0.1171875E-01
    1      -22.880982   1.000000
    2      -22.666554   1.000000
    3      -11.089255   1.000000
    4      -10.455583   1.000000
    5       -9.941336   1.000000
    6       -9.844592   1.000000
    7       -9.654301   1.000000
    8       -9.582521   1.000000
    9       -7.020670   1.000000
   10       -6.887470   1.000000
   11       -6.358074   1.000000
   12       -6.345752   1.000000
   13       -6.292438   1.000000
   14       -6.049398   1.000000
   15        0.434267   1.000000
   16        1.619807   1.000000
   17        1.622674   1.000000
   18        2.133374   1.000000
   19        2.533083   1.000000
   20        2.654101   1.000000
   21        2.721702   1.000000
   22        3.018163   1.000000
   23        3.093451   1.000000
   24        3.799980   1.000000
   25        3.850131   1.000000
   26        4.332373   1.000000
   27        5.119212   1.000000
   28        5.220969   1.000000
   29        5.435585   1.000000
   30        5.666747   1.000000
   31        5.683378   1.000000
   32        5.887805   1.000000
   33        6.156189   1.000000
   34        6.222283   1.000000
   35        6.300762   1.000000
   36        6.678698   1.000000
   37        6.807393   1.000000
   38        6.831948   1.000000
   39        7.194222   0.369014
   40        7.311850   0.000125
   41        9.429485   0.000000
   42        9.457487   0.000000
   43       11.407137   0.000000
   44       11.417475   0.000000
   45       11.741539   0.000000
   46       11.754568   0.000000
 
  0.3750000E+00  0.0000000E+00  0.0000000E+00  0.1171875E-01
    1      -22.827829   1.000000
    2      -22.711836   1.000000
    3      -11.126093   1.000000
    4      -10.804191   1.000000
    5       -9.973277   1.000000
    6       -9.925629   1.000000
    7       -9.652938   1.000000
    8       -9.621112   1.000000
    9       -6.817405   1.000000
   10       -6.766504   1.000000
   11       -6.242986   1.000000
   12       -6.235591   1.000000
   13       -5.907301   1.000000
   14       -5.772577   1.000000
   15        0.840001   1.000000
   16        1.564163   1.000000
   17        1.799194   1.000000
   18        1.810675   1.000000
   19        2.304341   1.000000
   20        2.386729   1.000000
   21        2.500101   1.000000
   22        3.016673   1.000000
   23        3.100644   1.000000
   24        3.422295   1.000000
   25        3.445147   1.000000
   26        3.718358   1.000000
   27        5.068018   1.000000
   28        5.162494   1.000000
   29        5.578237   1.000000
   30        5.717682   1.000000
   31        5.894958   1.000000
   32        5.933835   1.000000
   33        6.052377   1.000000
   34        6.108302   1.000000
   35        6.169258   1.000000
   36        6.439855   1.000000
   37        6.640426   1.000000
   38        6.671103   1.000000
   39        7.697176   0.000000
   40        7.793005   0.000000
   41        8.888397   0.000000
   42        8.935882   0.000000
   43       11.565208   0.000000
   44       11.606291   0.000000
   45       11.714381   0.000000
   46       11.738382   0.000000
 
  0.5000000E+00  0.2775558E-16  0.0000000E+00  0.5859375E-02
    1      -22.768198   1.000000
    2      -22.768198   1.000000
    3      -11.037023   1.000000
    4      -11.037023   1.000000
    5       -9.970789   1.000000
    6       -9.970789   1.000000
    7       -9.648733   1.000000
    8       -9.648733   1.000000
    9       -6.715070   1.000000
   10       -6.715070   1.000000
   11       -6.209963   1.000000
   12       -6.209963   1.000000
   13       -5.693992   1.000000
   14       -5.693992   1.000000
   15        1.156500   1.000000
   16        1.156500   1.000000
   17        2.022720   1.000000
   18        2.022720   1.000000
   19        2.079344   1.000000
   20        2.079344   1.000000
   21        2.858653   1.000000
   22        2.858653   1.000000
   23        3.173280   1.000000
   24        3.173280   1.000000
   25        3.270253   1.000000
   26        3.270253   1.000000
   27        5.091362   1.000000
   28        5.091362   1.000000
   29        5.674555   1.000000
   30        5.674555   1.000000
   31        5.972657   1.000000
   32        5.972657   1.000000
   33        6.055296   1.000000
   34        6.055296   1.000000
   35        6.281040   1.000000
   36        6.281040   1.000000
   37        6.530718   1.000000
   38        6.530718   1.000000
   39        8.274599   0.000000
   40        8.274599   0.000000
   41        8.372681   0.000000
   42        8.372681   0.000000
   43       11.634916   0.000000
   44       11.634916   0.000000
   45       11.717310   0.000000
   46       11.717310   0.000000
 
  0.1250000E+00  0.1250000E+00  0.0000000E+00  0.1171875E-01
    1      -22.913868   1.000000
    2      -22.640166   1.000000
    3      -11.014663   1.000000
    4      -10.035294   1.000000
    5       -9.970622   1.000000
    6       -9.787148   1.000000
    7       -9.712119   1.000000
    8       -9.568120   1.000000
    9       -7.125489   1.000000
   10       -6.852257   1.000000
   11       -6.843659   1.000000
   12       -6.485994   1.000000
   13       -6.414823   1.000000
   14       -6.254757   1.000000
   15        0.116111   1.000000
   16        1.467524   1.000000
   17        1.586873   1.000000
   18        2.538388   1.000000
   19        2.818384   1.000000
   20        2.874985   1.000000
   21        2.975889   1.000000
   22        3.044742   1.000000
   23        3.092661   1.000000
   24        4.279232   1.000000
   25        4.289493   1.000000
   26        4.620715   1.000000
   27        4.923433   1.000000
   28        5.260658   1.000000
   29        5.335094   1.000000
   30        5.412308   1.000000
   31        5.546844   1.000000
   32        6.153533   1.000000
   33        6.300739   1.000000
   34        6.302707   1.000000
   35        6.537238   1.000000
   36        6.583254   1.000000
   37        6.801186   1.000000
   38        6.911027   1.000000
   39        7.008886   1.000000
   40        7.120393   0.960262
   41        9.589682   0.000000
   42        9.989812   0.000000
   43       11.187197   0.000000
   44       11.220361   0.000000
   45       11.754227   0.000000
   46       11.761910   0.000000
 
  0.2500000E+00  0.1250000E+00  0.0000000E+00  0.2343750E-01
    1      -22.886348   1.000000
    2      -22.661042   1.000000
    3      -11.116061   1.000000
    4      -10.345323   1.000000
    5      -10.030098   1.000000
    6       -9.785119   1.000000
    7       -9.755254   1.000000
    8       -9.530585   1.000000
    9       -6.963904   1.000000
   10       -6.800410   1.000000
   11       -6.522179   1.000000
   12       -6.365890   1.000000
   13       -6.313487   1.000000
   14       -6.023256   1.000000
   15        0.355633   1.000000
   16        1.505952   1.000000
   17        1.766483   1.000000
   18        2.120923   1.000000
   19        2.583875   1.000000
   20        2.664142   1.000000
   21        2.834130   1.000000
   22        3.031210   1.000000
   23        3.069412   1.000000
   24        3.883373   1.000000
   25        3.949529   1.000000
   26        4.521282   1.000000
   27        4.841024   1.000000
   28        5.183917   1.000000
   29        5.304817   1.000000
   30        5.578181   1.000000
   31        5.771442   1.000000
   32        5.978126   1.000000
   33        6.071355   1.000000
   34        6.242708   1.000000
   35        6.473241   1.000000
   36        6.699737   1.000000
   37        6.762365   1.000000
   38        6.803408   1.000000
   39        6.953128   1.000000
   40        7.374464   0.000000
   41        9.114311   0.000000
   42        9.842572   0.000000
   43       11.381359   0.000000
   44       11.436792   0.000000
   45       11.727708   0.000000
   46       11.746286   0.000000
 
  0.3750000E+00  0.1250000E+00  0.0000000E+00  0.2343750E-01
    1      -22.840978   1.000000
    2      -22.698308   1.000000
    3      -11.184381   1.000000
    4      -10.715767   1.000000
    5      -10.092753   1.000000
    6       -9.868865   1.000000
    7       -9.686600   1.000000
    8       -9.530999   1.000000
    9       -6.821203   1.000000
   10       -6.676834   1.000000
   11       -6.340795   1.000000
   12       -6.159088   1.000000
   13       -6.010179   1.000000
   14       -5.797052   1.000000
   15        0.694091   1.000000
   16        1.615119   1.000000
   17        1.636499   1.000000
   18        1.992650   1.000000
   19        2.370520   1.000000
   20        2.385308   1.000000
   21        2.574909   1.000000
   22        3.045198   1.000000
   23        3.072346   1.000000
   24        3.438056   1.000000
   25        3.519439   1.000000
   26        4.097834   1.000000
   27        4.880121   1.000000
   28        5.143144   1.000000
   29        5.306989   1.000000
   30        5.728444   1.000000
   31        5.787494   1.000000
   32        5.910885   1.000000
   33        6.006248   1.000000
   34        6.165784   1.000000
   35        6.358889   1.000000
   36        6.523888   1.000000
   37        6.673145   1.000000
   38        6.691320   1.000000
   39        7.208901   0.226734
   40        7.858369   0.000000
   41        8.534256   0.000000
   42        9.462947   0.000000
   43       11.562953   0.000000
   44       11.613916   0.000000
   45       11.705214   0.000000
   46       11.733872   0.000000
 
  0.5000000E+00  0.1250000E+00  0.2775558E-16  0.2343750E-01
    1      -22.786482   1.000000
    2      -22.747999   1.000000
    3      -11.138022   1.000000
    4      -10.998767   1.000000
    5      -10.113696   1.000000
    6       -9.954319   1.000000
    7       -9.612515   1.000000
    8       -9.543580   1.000000
    9       -6.711554   1.000000
   10       -6.643548   1.000000
   11       -6.244664   1.000000
   12       -6.062273   1.000000
   13       -5.746619   1.000000
   14       -5.692801   1.000000
   15        0.992893   1.000000
   16        1.217247   1.000000
   17        1.824748   1.000000
   18        2.075657   1.000000
   19        2.136744   1.000000
   20        2.291356   1.000000
   21        2.638060   1.000000
   22        2.886838   1.000000
   23        3.118399   1.000000
   24        3.243608   1.000000
   25        3.315585   1.000000
   26        3.565945   1.000000
   27        4.890805   1.000000
   28        5.060678   1.000000
   29        5.464249   1.000000
   30        5.701323   1.000000
   31        5.715537   1.000000
   32        5.988046   1.000000
   33        6.042740   1.000000
   34        6.199748   1.000000
   35        6.228100   1.000000
   36        6.448899   1.000000
   37        6.542715   1.000000
   38        6.578952   1.000000
   39        7.697557   0.000000
   40        7.936352   0.000000
   41        8.414193   0.000000
   42        8.948559   0.000000
   43       11.633027   0.000000
   44       11.665523   0.000000
   45       11.703334   0.000000
   46       11.736578   0.000000
 
 -0.3750000E+00  0.1250000E+00 -0.1387779E-16  0.2343750E-01
    1      -22.803658   1.000000
    2      -22.732170   1.000000
    3      -11.144568   1.000000
    4      -10.946973   1.000000
    5      -10.113768   1.000000
    6       -9.965429   1.000000
    7       -9.590350   1.000000
    8       -9.511539   1.000000
    9       -6.823739   1.000000
   10       -6.626432   1.000000
   11       -6.225069   1.000000
   12       -6.070735   1.000000
   13       -5.813028   1.000000
   14       -5.735803   1.000000
   15        0.925949   1.000000
   16        1.313534   1.000000
   17        1.850607   1.000000
   18        2.020339   1.000000
   19        2.101723   1.000000
   20        2.403760   1.000000
   21        2.466917   1.000000
   22        2.992878   1.000000
   23        3.112529   1.000000
   24        3.230312   1.000000
   25        3.366295   1.000000
   26        3.762205   1.000000
   27        4.779704   1.000000
   28        5.189098   1.000000
   29        5.507275   1.000000
   30        5.643504   1.000000
   31        5.824761   1.000000
   32        5.999130   1.000000
   33        6.042744   1.000000
   34        6.082216   1.000000
   35        6.268794   1.000000
   36        6.416825   1.000000
   37        6.521755   1.000000
   38        6.699754   1.000000
   39        7.387665   0.000000
   40        8.283282   0.000000
   41        8.379815   0.000000
   42        8.968332   0.000000
   43       11.605339   0.000000
   44       11.653349   0.000000
   45       11.709907   0.000000
   46       11.749434   0.000000
 
 -0.2500000E+00  0.1250000E+00  0.6938894E-17  0.2343750E-01
    1      -22.856609   1.000000
    2      -22.685918   1.000000
    3      -11.152820   1.000000
    4      -10.630018   1.000000
    5      -10.107377   1.000000
    6       -9.881547   1.000000
    7       -9.612143   1.000000
    8       -9.470772   1.000000
    9       -7.015686   1.000000
   10       -6.716636   1.000000
   11       -6.290269   1.000000
   12       -6.199288   1.000000
   13       -6.121871   1.000000
   14       -5.927227   1.000000
   15        0.606462   1.000000
   16        1.663283   1.000000
   17        1.768174   1.000000
   18        1.801731   1.000000
   19        2.392823   1.000000
   20        2.417035   1.000000
   21        2.716961   1.000000
   22        3.040221   1.000000
   23        3.133938   1.000000
   24        3.425821   1.000000
   25        3.693732   1.000000
   26        4.312487   1.000000
   27        4.783573   1.000000
   28        5.264202   1.000000
   29        5.423700   1.000000
   30        5.698205   1.000000
   31        5.888514   1.000000
   32        5.907965   1.000000
   33        5.942555   1.000000
   34        6.238288   1.000000
   35        6.302527   1.000000
   36        6.586163   1.000000
   37        6.669706   1.000000
   38        6.807237   1.000000
   39        6.974136   1.000000
   40        7.810187   0.000000
   41        8.895481   0.000000
   42        9.451808   0.000000
   43       11.505405   0.000000
   44       11.539157   0.000000
   45       11.731391   0.000000
   46       11.757263   0.000000
 
 -0.1250000E+00  0.1250000E+00  0.0000000E+00  0.1171875E-01
    1      -22.897341   1.000000
    2      -22.653273   1.000000
    3      -11.069944   1.000000
    4      -10.274088   1.000000
    5      -10.048555   1.000000
    6       -9.766898   1.000000
    7       -9.667197   1.000000
    8       -9.490301   1.000000
    9       -7.163777   1.000000
   10       -6.851376   1.000000
   11       -6.572394   1.000000
   12       -6.370693   1.000000
   13       -6.332663   1.000000
   14       -6.169805   1.000000
   15        0.273096   1.000000
   16        1.533614   1.000000
   17        1.621014   1.000000
   18        2.283426   1.000000
   19        2.680648   1.000000
   20        2.685058   1.000000
   21        2.894313   1.000000
   22        3.042357   1.000000
   23        3.118084   1.000000
   24        3.902208   1.000000
   25        4.080293   1.000000
   26        4.566917   1.000000
   27        4.985798   1.000000
   28        5.233005   1.000000
   29        5.378457   1.000000
   30        5.534025   1.000000
   31        5.661445   1.000000
   32        6.068504   1.000000
   33        6.171488   1.000000
   34        6.332426   1.000000
   35        6.470643   1.000000
   36        6.556416   1.000000
   37        6.842456   1.000000
   38        6.891579   1.000000
   39        6.915133   1.000000
   40        7.318024   0.000062
   41        9.443705   0.000000
   42        9.777577   0.000000
   43       11.318526   0.000000
   44       11.322567   0.000000
   45       11.753241   0.000000
   46       11.769159   0.000000
 
  0.2500000E+00  0.2500000E+00  0.0000000E+00  0.1171875E-01
    1      -22.871879   1.000000
    2      -22.670301   1.000000
    3      -11.241568   1.000000
    4      -10.314103   1.000000
    5      -10.173178   1.000000
    6       -9.964140   1.000000
    7       -9.715523   1.000000
    8       -9.448978   1.000000
    9       -6.749290   1.000000
   10       -6.589288   1.000000
   11       -6.582110   1.000000
   12       -6.301614   1.000000
   13       -6.290895   1.000000
   14       -5.822283   1.000000
   15        0.411477   1.000000
   16        1.464093   1.000000
   17        1.830033   1.000000
   18        2.062924   1.000000
   19        2.343611   1.000000
   20        2.696190   1.000000
   21        2.784023   1.000000
   22        2.996852   1.000000
   23        3.032609   1.000000
   24        3.857893   1.000000
   25        3.882623   1.000000
   26        4.419240   1.000000
   27        4.633663   1.000000
   28        4.951409   1.000000
   29        5.350636   1.000000
   30        5.573188   1.000000
   31        5.730957   1.000000
   32        5.861598   1.000000
   33        6.083985   1.000000
   34        6.285438   1.000000
   35        6.569346   1.000000
   36        6.654888   1.000000
   37        6.672161   1.000000
   38        6.730533   1.000000
   39        6.842279   1.000000
   40        7.532184   0.000000
   41        8.581529   0.000000
   42        9.985569   0.000000
   43       11.463559   0.000000
   44       11.584987   0.000000
   45       11.709868   0.000000
   46       11.718558   0.000000
 
  0.3750000E+00  0.2500000E+00  0.0000000E+00  0.2343750E-01
    1      -22.841032   1.000000
    2      -22.693893   1.000000
    3      -11.348616   1.000000
    4      -10.595063   1.000000
    5      -10.246471   1.000000
    6       -9.934179   1.000000
    7       -9.709511   1.000000
    8       -9.411773   1.000000
    9       -6.628267   1.000000
   10       -6.524910   1.000000
   11       -6.385879   1.000000
   12       -6.158007   1.000000
   13       -6.050066   1.000000
   14       -5.648083   1.000000
   15        0.581441   1.000000
   16        1.476593   1.000000
   17        1.504440   1.000000
   18        2.057879   1.000000
   19        2.378210   1.000000
   20        2.573033   1.000000
   21        2.643553   1.000000
   22        2.994455   1.000000
   23        3.029134   1.000000
   24        3.504907   1.000000
   25        3.587846   1.000000
   26        4.400302   1.000000
   27        4.502267   1.000000
   28        4.906526   1.000000
   29        5.202753   1.000000
   30        5.569496   1.000000
   31        5.625666   1.000000
   32        5.915985   1.000000
   33        6.067522   1.000000
   34        6.272163   1.000000
   35        6.455469   1.000000
   36        6.555560   1.000000
   37        6.645271   1.000000
   38        6.694358   1.000000
   39        6.869998   1.000000
   40        7.866752   0.000000
   41        7.983131   0.000000
   42        9.841144   0.000000
   43       11.576267   0.000000
   44       11.679949   0.000000
   45       11.686241   0.000000
   46       11.749193   0.000000
 
  0.5000000E+00  0.2500000E+00  0.0000000E+00  0.2343750E-01
    1      -22.800227   1.000000
    2      -22.729638   1.000000
    3      -11.344360   1.000000
    4      -10.910199   1.000000
    5      -10.256816   1.000000
    6       -9.945215   1.000000
    7       -9.630552   1.000000
    8       -9.414808   1.000000
    9       -6.588620   1.000000
   10       -6.502527   1.000000
   11       -6.198210   1.000000
   12       -6.014128   1.000000
   13       -5.819918   1.000000
   14       -5.599759   1.000000
   15        0.804332   1.000000
   16        1.170685   1.000000
   17        1.631529   1.000000
   18        1.991477   1.000000
   19        2.278740   1.000000
   20        2.435833   1.000000
   21        2.648663   1.000000
   22        2.945686   1.000000
   23        3.029544   1.000000
   24        3.289247   1.000000
   25        3.405838   1.000000
   26        4.085195   1.000000
   27        4.622992   1.000000
   28        4.889365   1.000000
   29        5.146076   1.000000
   30        5.438357   1.000000
   31        5.585455   1.000000
   32        5.931246   1.000000
   33        6.174399   1.000000
   34        6.269193   1.000000
   35        6.299524   1.000000
   36        6.460573   1.000000
   37        6.599256   1.000000
   38        6.684374   1.000000
   39        7.106706   0.983857
   40        7.445947   0.000000
   41        8.311265   0.000000
   42        9.466538   0.000000
   43       11.631935   0.000000
   44       11.676884   0.000000
   45       11.695455   0.000000
   46       11.803153   0.000000
 
 -0.3750000E+00  0.2500000E+00 -0.6938894E-17  0.2343750E-01
    1      -22.773233   1.000000
    2      -22.756772   1.000000
    3      -11.195955   1.000000
    4      -11.117599   1.000000
    5      -10.188552   1.000000
    6      -10.047363   1.000000
    7       -9.501316   1.000000
    8       -9.443644   1.000000
    9       -6.727165   1.000000
   10       -6.458202   1.000000
   11       -6.092710   1.000000
   12       -5.955336   1.000000
   13       -5.776901   1.000000
   14       -5.700543   1.000000
   15        0.958962   1.000000
   16        1.052365   1.000000
   17        1.842104   1.000000
   18        2.089096   1.000000
   19        2.226831   1.000000
   20        2.284319   1.000000
   21        2.466484   1.000000
   22        2.714820   1.000000
   23        3.118930   1.000000
   24        3.187766   1.000000
   25        3.628645   1.000000
   26        3.933902   1.000000
   27        4.599283   1.000000
   28        4.927468   1.000000
   29        5.240273   1.000000
   30        5.528152   1.000000
   31        5.633791   1.000000
   32        6.046098   1.000000
   33        6.129882   1.000000
   34        6.172789   1.000000
   35        6.190991   1.000000
   36        6.336448   1.000000
   37        6.505281   1.000000
   38        6.821095   1.000000
   39        7.052968   0.999874
   40        7.613643   0.000000
   41        8.777656   0.000000
   42        8.957369   0.000000
   43       11.642041   0.000000
   44       11.668499   0.000000
   45       11.705859   0.000000
   46       11.804558   0.000000
 
 -0.2500000E+00  0.2500000E+00  0.0000000E+00  0.1171875E-01
    1      -22.818185   1.000000
    2      -22.717076   1.000000
    3      -11.189907   1.000000
    4      -10.924632   1.000000
    5      -10.133888   1.000000
    6      -10.046206   1.000000
    7       -9.504350   1.000000
    8       -9.432415   1.000000
    9       -6.904986   1.000000
   10       -6.538450   1.000000
   11       -6.146326   1.000000
   12       -6.020247   1.000000
   13       -5.912697   1.000000
   14       -5.829471   1.000000
   15        0.791562   1.000000
   16        1.371224   1.000000
   17        1.889182   1.000000
   18        2.011128   1.000000
   19        2.117820   1.000000
   20        2.224056   1.000000
   21        2.736149   1.000000
   22        2.880109   1.000000
   23        3.063562   1.000000
   24        3.295471   1.000000
   25        3.441171   1.000000
   26        4.310404   1.000000
   27        4.482848   1.000000
   28        5.139002   1.000000
   29        5.422817   1.000000
   30        5.539290   1.000000
   31        5.877841   1.000000
   32        5.919666   1.000000
   33        6.119867   1.000000
   34        6.124957   1.000000
   35        6.263197   1.000000
   36        6.415554   1.000000
   37        6.465372   1.000000
   38        6.851385   1.000000
   39        6.867876   1.000000
   40        8.256451   0.000000
   41        8.385706   0.000000
   42        9.193461   0.000000
   43       11.604466   0.000000
   44       11.636618   0.000000
   45       11.712281   0.000000
   46       11.781432   0.000000
 
  0.3750000E+00  0.3750000E+00  0.2775558E-16  0.1171875E-01
    1      -22.829061   1.000000
    2      -22.700058   1.000000
    3      -11.497656   1.000000
    4      -10.524298   1.000000
    5      -10.352939   1.000000
    6      -10.108923   1.000000
    7       -9.662590   1.000000
    8       -9.342098   1.000000
    9       -6.447403   1.000000
   10       -6.403795   1.000000
   11       -6.378327   1.000000
   12       -6.070728   1.000000
   13       -5.972590   1.000000
   14       -5.484047   1.000000
   15        0.566342   1.000000
   16        1.278794   1.000000
   17        1.460867   1.000000
   18        1.768355   1.000000
   19        2.467172   1.000000
   20        2.577742   1.000000
   21        2.892005   1.000000
   22        2.913987   1.000000
   23        3.022697   1.000000
   24        3.611506   1.000000
   25        3.639266   1.000000
   26        3.998588   1.000000
   27        4.549341   1.000000
   28        4.660447   1.000000
   29        5.366889   1.000000
   30        5.485627   1.000000
   31        5.547236   1.000000
   32        5.879862   1.000000
   33        5.904132   1.000000
   34        6.317109   1.000000
   35        6.399236   1.000000
   36        6.547984   1.000000
   37        6.592491   1.000000
   38        6.683188   1.000000
   39        6.805695   1.000000
   40        7.461928   0.000000
   41        7.944292   0.000000
   42        9.980306   0.000000
   43       11.618330   0.000000
   44       11.653919   0.000000
   45       11.665302   0.000000
   46       11.837638   0.000000
 
  0.5000000E+00  0.3750000E+00  0.5551115E-16  0.2343750E-01
    1      -22.808405   1.000000
    2      -22.716851   1.000000
    3      -11.533516   1.000000
    4      -10.739264   1.000000
    5      -10.376800   1.000000
    6      -10.014790   1.000000
    7       -9.665300   1.000000
    8       -9.327384   1.000000
    9       -6.460017   1.000000
   10       -6.309345   1.000000
   11       -6.272974   1.000000
   12       -5.975594   1.000000
   13       -5.841849   1.000000
   14       -5.435262   1.000000
   15        0.658553   1.000000
   16        1.107589   1.000000
   17        1.504180   1.000000
   18        1.662237   1.000000
   19        2.395825   1.000000
   20        2.487115   1.000000
   21        2.792415   1.000000
   22        2.906681   1.000000
   23        3.240791   1.000000
   24        3.413521   1.000000
   25        3.530291   1.000000
   26        4.135189   1.000000
   27        4.524264   1.000000
   28        4.694150   1.000000
   29        5.115434   1.000000
   30        5.415379   1.000000
   31        5.483105   1.000000
   32        5.864534   1.000000
   33        6.135446   1.000000
   34        6.284616   1.000000
   35        6.341284   1.000000
   36        6.364907   1.000000
   37        6.511769   1.000000
   38        6.646859   1.000000