 
             +---------------------------------------------------+
             |                                                   |
             |                   WANNIER90                       |
             |                                                   |
             +---------------------------------------------------+
             |                                                   |
             |        Welcome to the Maximally-Localized         |
             |        Generalized Wannier Functions code         |
             |            http://www.wannier.org                 |
             |                                                   |
             |                                                   |
             |  Wannier90 Developer Group:                       |
             |    Giovanni Pizzi    (EPFL)                       |
             |    Valerio Vitale    (Cambridge)                  |
             |    David Vanderbilt  (Rutgers University)         |
             |    Nicola Marzari    (EPFL)                       |
             |    Ivo Souza         (Universidad del Pais Vasco) |
             |    Arash A. Mostofi  (Imperial College London)    |
             |    Jonathan R. Yates (University of Oxford)       |
             |                                                   |
             |  For the full list of Wannier90 3.x authors,      |
             |  please check the code documentation and the      |
             |  README on the GitHub page of the code            |
             |                                                   |
             |                                                   |
             |  Please cite                                      |
             |                                                   |
             |  [ref] "An updated version of Wannier90:          |
             |        A Tool for Obtaining Maximally Localised   |
             |        Wannier Functions", A. A. Mostofi,         |
             |        J. R. Yates, G. Pizzi, Y. S. Lee,          |
             |        I. Souza, D. Vanderbilt and N. Marzari,    |
             |        Comput. Phys. Commun. 185, 2309 (2014)     |
             |        http://dx.doi.org/10.1016/j.cpc.2014.05.003|
             |                                                   |
             |  in any publications arising from the use of      |
             |  this code. For the method please cite            |
             |                                                   |
             |  [ref] "Maximally Localized Generalised Wannier   |
             |         Functions for Composite Energy Bands"     |
             |         N. Marzari and D. Vanderbilt              |
             |         Phys. Rev. B 56 12847 (1997)              |
             |                                                   |
             |  [ref] "Maximally Localized Wannier Functions     |
             |         for Entangled Energy Bands"               |
             |         I. Souza, N. Marzari and D. Vanderbilt    |
             |         Phys. Rev. B 65 035109 (2001)             |
             |                                                   |
             |                                                   |
             | Copyright (c) 1996-2019                           |
             |        The Wannier90 Developer Group and          |
             |        individual contributors                    |
             |                                                   |
             |      Release: 3.0.0       27th February 2019      |
             |                                                   |
             | This program is free software; you can            |
             | redistribute it and/or modify it under the terms  |
             | of the GNU General Public License as published by |
             | the Free Software Foundation; either version 2 of |
             | the License, or (at your option) any later version|
             |                                                   |
             | This program is distributed in the hope that it   |
             | will be useful, but WITHOUT ANY WARRANTY; without |
             | even the implied warranty of MERCHANTABILITY or   |
             | FITNESS FOR A PARTICULAR PURPOSE. See the GNU     |
             | General Public License for more details.          |
             |                                                   |
             | You should have received a copy of the GNU General|
             | Public License along with this program; if not,   |
             | write to the Free Software Foundation, Inc.,      |
             | 675 Mass Ave, Cambridge, MA 02139, USA.           |
             |                                                   |
             +---------------------------------------------------+
             |    Execution started on 10May2019 at 06:10:30     |
             +---------------------------------------------------+
 
 ******************************************************************************
 * -> Using CODATA 2006 constant values                                       *
 *    (http://physics.nist.gov/cuu/Constants/index.html)                      *
 * -> Using Bohr value from CODATA                                            *
 ******************************************************************************
 

 Running in parallel on  72 CPUs

 
                                    ------
                                    SYSTEM
                                    ------
 
                              Lattice Vectors (Ang)
                    a_1     1.545704  -2.677239   4.279779
                    a_2     1.545704   2.677239   4.279779
                    a_3    -3.091409   0.000000   4.279779
 
                   Unit Cell Volume:     106.26398  (Ang^3)
 
                        Reciprocal-Space Vectors (Ang^-1)
                    b_1     0.677489  -1.173445   0.489370
                    b_2     0.677489   1.173445   0.489370
                    b_3    -1.354978   0.000000   0.489370
  
 *----------------------------------------------------------------------------*
 |   Site       Fractional Coordinate          Cartesian Coordinate (Ang)     |
 +----------------------------------------------------------------------------+
 | La   1   0.25000   0.25000   0.25000   |    0.00000   0.00000   3.20983    |
 | La   2   0.75000   0.75000   0.75000   |    0.00000   0.00000   9.62950    |
 | Ni   1   0.00000   0.00000   0.00000   |    0.00000   0.00000   0.00000    |
 | Ni   2   0.50000   0.50000   0.50000   |    0.00000   0.00000   6.41967    |
 | O    1   0.70478   0.79522   0.25000   |    1.54570   0.24212   7.48961    |
 | O    2   0.79522   0.25000   0.70478   |   -0.56317  -1.45968   7.48961    |
 | O    3   0.25000   0.70478   0.79522   |   -0.98254   1.21756   7.48961    |
 | O    4   0.29522   0.20478   0.75000   |   -1.54570  -0.24212   5.34972    |
 | O    5   0.20478   0.75000   0.29522   |    0.56317   1.45968   5.34972    |
 | O    6   0.75000   0.29522   0.20478   |    0.98254  -1.21756   5.34972    |
 *----------------------------------------------------------------------------*
                                ------------
                                K-POINT GRID
                                ------------
  
             Grid size =  8 x  8 x  8      Total points =  512
  
  
 *---------------------------------- MAIN ------------------------------------*
 |  Number of Wannier Functions               :                28             |
 |  Number of Objective Wannier Functions     :                28             |
 |  Number of input Bloch states              :                46             |
 |  Output verbosity (1=low, 5=high)          :                 1             |
 |  Timing Level (1=low, 5=high)              :                 1             |
 |  Optimisation (0=memory, 3=speed)          :                 3             |
 |  Length Unit                               :               Ang             |
 |  Post-processing setup (write *.nnkp)      :                 F             |
 |  Using Gamma-only branch of algorithms     :                 F             |
 *----------------------------------------------------------------------------*
 *------------------------------- WANNIERISE ---------------------------------*
 |  Total number of iterations                :               100             |
 |  Number of CG steps before reset           :                 5             |
 |  Trial step length for line search         :             2.000             |
 |  Convergence tolerence                     :         0.100E-09             |
 |  Convergence window                        :                -1             |
 |  Iterations between writing output         :                 1             |
 |  Iterations between backing up to disk     :               100             |
 |  Write r^2_nm to file                      :                 F             |
 |  Write xyz WF centres to file              :                 F             |
 |  Write on-site energies <0n|H|0n> to file  :                 F             |
 |  Use guiding centre to control phases      :                 F             |
 |  Use phases for initial projections        :                 F             |
 *----------------------------------------------------------------------------*
 *------------------------------- DISENTANGLE --------------------------------*
 |  Using band disentanglement                :                 T             |
 |  Total number of iterations                :               200             |
 |  Mixing ratio                              :             0.500             |
 |  Convergence tolerence                     :         1.000E-10             |
 |  Convergence window                        :                 3             |
 *----------------------------------------------------------------------------*
 Time to read parameters        0.048 (sec)

 *---------------------------------- K-MESH ----------------------------------*
 +----------------------------------------------------------------------------+
 |                    Distance to Nearest-Neighbour Shells                    |
 |                    ------------------------------------                    |
 |          Shell             Distance (Ang^-1)          Multiplicity         |
 |          -----             -----------------          ------------         |
 |             1                   0.180080                      6            |
 |             2                   0.183514                      2            |
 |             3                   0.208937                      6            |
 |             4                   0.293361                      6            |
 |             5                   0.297586                      6            |
 |             6                   0.344223                      6            |
 |             7                   0.346032                     12            |
 |             8                   0.349621                      6            |
 |             9                   0.360160                      6            |
 |            10                   0.367027                      2            |
 |            11                   0.417874                      6            |
 |            12                   0.452273                     12            |
 |            13                   0.456394                      6            |
 |            14                   0.460479                      6            |
 |            15                   0.464517                     12            |
 |            16                   0.469862                     12            |
 |            17                   0.508117                      6            |
 |            18                   0.510568                     12            |
 |            19                   0.517851                      6            |
 |            20                   0.540241                     12            |
 |            21                   0.542546                     12            |
 |            22                   0.545987                      6            |
 |            23                   0.550541                      2            |
 |            24                   0.586723                      6            |
 |            25                   0.595173                      6            |
 |            26                   0.613736                     12            |
 |            27                   0.614753                     12            |
 |            28                   0.619809                     12            |
 |            29                   0.622815                     12            |
 |            30                   0.623824                     12            |
 |            31                   0.626811                     12            |
 |            32                   0.634728                      6            |
 |            33                   0.657876                     12            |
 |            34                   0.663545                     12            |
 |            35                   0.680245                      6            |
 |            36                   0.682992                     12            |
 +----------------------------------------------------------------------------+
 | The b-vectors are chosen automatically                                     |
 | The following shells are used:   1,  2                                     |
 +----------------------------------------------------------------------------+
 |                        Shell   # Nearest-Neighbours                        |
 |                        -----   --------------------                        |
 |                          1               6                                 |
 |                          2               2                                 |
 +----------------------------------------------------------------------------+
 | Completeness relation is fully satisfied [Eq. (B1), PRB 56, 12847 (1997)]  |
 +----------------------------------------------------------------------------+
 |                  b_k Vectors (Ang^-1) and Weights (Ang^2)                  |
 |                  ----------------------------------------                  |
 |            No.         b_k(x)      b_k(y)      b_k(z)        w_b           |
 |            ---        --------------------------------     --------        |
 |             1         0.084686   -0.146681    0.061171    11.619686        |
 |             2        -0.084686    0.146681   -0.061171    11.619686        |
 |             3         0.084686    0.146681    0.061171    11.619686        |
 |             4        -0.084686   -0.146681   -0.061171    11.619686        |
 |             5        -0.169372    0.000000    0.061171    11.619686        |
 |             6         0.169372    0.000000   -0.061171    11.619686        |
 |             7         0.000000    0.000000    0.183514    10.973572        |
 |             8         0.000000    0.000000   -0.183514    10.973572        |
 +----------------------------------------------------------------------------+
 |                           b_k Directions (Ang^-1)                          |
 |                           -----------------------                          |
 |            No.           x           y           z                         |
 |            ---        --------------------------------                     |
 |             1         0.084686   -0.146681    0.061171                     |
 |             2         0.084686    0.146681    0.061171                     |
 |             3        -0.169372    0.000000    0.061171                     |
 |             4         0.000000    0.000000    0.183514                     |
 +----------------------------------------------------------------------------+
  
 Time to get kmesh              0.298 (sec)
 *============================================================================*
 |                              MEMORY ESTIMATE                               |
 |         Maximum RAM allocated during each phase of the calculation         |
 *============================================================================*
 |                        Disentanglement          208.28 Mb                  |
 |                            Wannierise:          137.41 Mb                  |
 |                          plot_wannier:          137.41 Mb                  |
 *----------------------------------------------------------------------------*
  
 Starting a new Wannier90 calculation ...


 Reading overlaps from wannier90.mmn    : File generated by VASP: LaNiO3

 Reading projections from wannier90.amn : File generated by VASP: LaNiO3

 Time to read overlaps          6.671 (sec)

 *------------------------------- DISENTANGLE --------------------------------*
 +----------------------------------------------------------------------------+
 |                              Energy  Windows                               |
 |                              ---------------                               |
 |                   Outer:   -0.81760  to   10.28240  (eV)                   |
 |                   No frozen states were specified                          |
 +----------------------------------------------------------------------------+
   Number of target bands to extract:   28

                   Unitarised projection of Wannier functions                  
                   ------------------------------------------                  
   A_mn = <psi_m|g_n> --> S = A.A^+ --> U = S^-1/2.A
   In dis_project... done
   No inner window (linner = F)

                   Extraction of optimally-connected subspace                  
                   ------------------------------------------                  
 +---------------------------------------------------------------------+<-- DIS
 |  Iter     Omega_I(i-1)      Omega_I(i)      Delta (frac.)    Time   |<-- DIS
 +---------------------------------------------------------------------+<-- DIS
       1      26.14765057      26.14765057      -1.887E-15      0.00    <-- DIS
       2      26.14765057      26.14765057       3.109E-15      0.02    <-- DIS
       3      26.14765057      26.14765057      -1.776E-15      0.03    <-- DIS

             <<<      Delta < 1.000E-10  over  3 iterations     >>>
             <<< Disentanglement convergence criteria satisfied >>>

        Final Omega_I    26.14765057 (Ang^2)

 +----------------------------------------------------------------------------+

 Time to disentangle bands      0.693 (sec)

 Writing checkpoint file wannier90.chk... done

 
 *------------------------------- WANNIERISE ---------------------------------*
 +--------------------------------------------------------------------+<-- CONV
 | Iter  Delta Spread     RMS Gradient      Spread (Ang^2)      Time  |<-- CONV
 +--------------------------------------------------------------------+<-- CONV
 
 ------------------------------------------------------------------------------
 Initial State
  WF centre and spread    1  ( -0.000000,  0.000000,  0.000000 )     0.46497016
  WF centre and spread    2  ( -0.000000,  0.000000, -0.000000 )     0.47096864
  WF centre and spread    3  (  0.000000, -0.000000,  0.000000 )     0.47075188
  WF centre and spread    4  (  0.000000,  0.000000,  0.000000 )     0.46446231
  WF centre and spread    5  ( -0.000000,  0.000000,  0.000000 )     0.47240076
  WF centre and spread    6  (  0.000000,  0.000000,  6.419668 )     0.46497016
  WF centre and spread    7  ( -0.000000,  0.000000,  6.419668 )     0.47096864
  WF centre and spread    8  ( -0.000000,  0.000000,  6.419668 )     0.47075188
  WF centre and spread    9  ( -0.000000,  0.000000,  6.419668 )     0.46446231
  WF centre and spread   10  (  0.000000, -0.000000,  6.419668 )     0.47240076
  WF centre and spread   11  (  1.545704,  0.255527,  7.489613 )     1.22798363
  WF centre and spread   12  (  1.545704,  0.256352,  7.489613 )     1.10560331
  WF centre and spread   13  (  1.545704,  0.347552,  7.489613 )     1.40941987
  WF centre and spread   14  ( -0.551563, -1.466360,  7.489649 )     1.22796544
  WF centre and spread   15  ( -0.494662, -1.506252,  7.485612 )     1.33457126
  WF centre and spread   16  ( -0.528027, -1.472716,  7.493619 )     1.18342679
  WF centre and spread   17  ( -0.994141,  1.210879,  7.489576 )     1.22796542
  WF centre and spread   18  ( -1.051043,  1.170987,  7.493614 )     1.33457122
  WF centre and spread   19  ( -1.017677,  1.204523,  7.485606 )     1.18342677
  WF centre and spread   20  ( -1.545704, -0.255527,  5.349723 )     1.22798363
  WF centre and spread   21  ( -1.545704, -0.256352,  5.349723 )     1.10560331
  WF centre and spread   22  ( -1.545704, -0.347552,  5.349723 )     1.40941987
  WF centre and spread   23  (  0.551563,  1.466360,  5.349687 )     1.22796544
  WF centre and spread   24  (  0.494662,  1.506252,  5.353724 )     1.33457126
  WF centre and spread   25  (  0.528027,  1.472716,  5.345717 )     1.18342679
  WF centre and spread   26  (  0.994141, -1.210879,  5.349760 )     1.22796542
  WF centre and spread   27  (  1.051043, -1.170987,  5.345722 )     1.33457122
  WF centre and spread   28  (  1.017677, -1.204523,  5.353730 )     1.18342677
  Sum of centres and spreads ( -0.000000,  0.000000,147.652365 )    27.15697491
 
      0     0.272E+02     0.0000000000       27.1569749099       0.42  <-- CONV
        O_D=      0.0169000 O_OD=      0.9924243 O_TOT=     27.1569749 <-- SPRD
 ------------------------------------------------------------------------------
 Cycle:      1
  WF centre and spread    1  ( -0.000000,  0.000000,  0.000000 )     0.45849489
  WF centre and spread    2  ( -0.000000,  0.000000, -0.000000 )     0.45989378
  WF centre and spread    3  (  0.000000, -0.000000,  0.000000 )     0.45912257
  WF centre and spread    4  (  0.000000,  0.000000,  0.000000 )     0.45788434
  WF centre and spread    5  ( -0.000000,  0.000000,  0.000000 )     0.46067359
  WF centre and spread    6  (  0.000000,  0.000000,  6.419668 )     0.45849489
  WF centre and spread    7  ( -0.000000,  0.000000,  6.419668 )     0.45989378
  WF centre and spread    8  ( -0.000000,  0.000000,  6.419668 )     0.45912258
  WF centre and spread    9  ( -0.000000,  0.000000,  6.419668 )     0.45788435
  WF centre and spread   10  (  0.000000, -0.000000,  6.419668 )     0.46067359
  WF centre and spread   11  (  1.545704,  0.255560,  7.489613 )     1.21829162
  WF centre and spread   12  (  1.545704,  0.256112,  7.489613 )     1.09607211
  WF centre and spread   13  (  1.545704,  0.347379,  7.489613 )     1.39344283
  WF centre and spread   14  ( -0.551525, -1.466385,  7.489631 )     1.21817759
  WF centre and spread   15  ( -0.494870, -1.506149,  7.485695 )     1.32078828
  WF centre and spread   16  ( -0.528264, -1.472652,  7.493544 )     1.17274458
  WF centre and spread   17  ( -0.994180,  1.210854,  7.489594 )     1.21817757
  WF centre and spread   18  ( -1.050834,  1.171090,  7.493530 )     1.32078825
  WF centre and spread   19  ( -1.017440,  1.204586,  7.485681 )     1.17274456
  WF centre and spread   20  ( -1.545704, -0.255560,  5.349723 )     1.21829162
  WF centre and spread   21  ( -1.545704, -0.256112,  5.349723 )     1.09607211
  WF centre and spread   22  ( -1.545704, -0.347379,  5.349723 )     1.39344283
  WF centre and spread   23  (  0.551525,  1.466385,  5.349705 )     1.21817759
  WF centre and spread   24  (  0.494870,  1.506149,  5.353641 )     1.32078828
  WF centre and spread   25  (  0.528264,  1.472652,  5.345792 )     1.17274457
  WF centre and spread   26  (  0.994180, -1.210854,  5.349742 )     1.21817757
  WF centre and spread   27  (  1.050834, -1.171090,  5.345806 )     1.32078825
  WF centre and spread   28  (  1.017440, -1.204586,  5.353655 )     1.17274456
  Sum of centres and spreads ( -0.000000,  0.000000,147.652365 )    26.85459313
 
      1    -0.302E+00     0.2890693571       26.8545931253       0.45  <-- CONV
        O_D=      0.0027170 O_OD=      0.7042255 O_TOT=     26.8545931 <-- SPRD
 Delta: O_D= -0.1418296E-01 O_OD= -0.2881988E+00 O_TOT= -0.3023818E+00 <-- DLTA
 ------------------------------------------------------------------------------
 Cycle:      2
  WF centre and spread    1  ( -0.000000,  0.000000,  0.000000 )     0.45819629
  WF centre and spread    2  ( -0.000000,  0.000000, -0.000000 )     0.45711197
  WF centre and spread    3  (  0.000000, -0.000000,  0.000000 )     0.45620555
  WF centre and spread    4  (  0.000000,  0.000000,  0.000000 )     0.45753591
  WF centre and spread    5  ( -0.000000,  0.000000,  0.000000 )     0.45773471
  WF centre and spread    6  (  0.000000,  0.000000,  6.419668 )     0.45819629
  WF centre and spread    7  ( -0.000000,  0.000000,  6.419668 )     0.45711197
  WF centre and spread    8  ( -0.000000,  0.000000,  6.419668 )     0.45620555
  WF centre and spread    9  ( -0.000000,  0.000000,  6.419668 )     0.45753592
  WF centre and spread   10  ( -0.000000, -0.000000,  6.419668 )     0.45773471
  WF centre and spread   11  (  1.545704,  0.255597,  7.489613 )     1.21536228
  WF centre and spread   12  (  1.545704,  0.256042,  7.489613 )     1.09331895
  WF centre and spread   13  (  1.545704,  0.347360,  7.489613 )     1.38887974
  WF centre and spread   14  ( -0.551495, -1.466413,  7.489625 )     1.21520067
  WF centre and spread   15  ( -0.494894, -1.506123,  7.485708 )     1.31686348
  WF centre and spread   16  ( -0.528327, -1.472645,  7.493528 )     1.16958450
  WF centre and spread   17  ( -0.994209,  1.210826,  7.489601 )     1.21520065
  WF centre and spread   18  ( -1.050810,  1.171115,  7.493517 )     1.31686345
  WF centre and spread   19  ( -1.017378,  1.204593,  7.485697 )     1.16958448
  WF centre and spread   20  ( -1.545704, -0.255597,  5.349723 )     1.21536228
  WF centre and spread   21  ( -1.545704, -0.256042,  5.349723 )     1.09331895
  WF centre and spread   22  ( -1.545704, -0.347360,  5.349723 )     1.38887974
  WF centre and spread   23  (  0.551495,  1.466413,  5.349711 )     1.21520067
  WF centre and spread   24  (  0.494894,  1.506123,  5.353628 )     1.31686348
  WF centre and spread   25  (  0.528327,  1.472645,  5.345808 )     1.16958450
  WF centre and spread   26  (  0.994209, -1.210826,  5.349736 )     1.21520065
  WF centre and spread   27  (  1.050810, -1.171115,  5.345819 )     1.31686345
  WF centre and spread   28  (  1.017378, -1.204593,  5.353639 )     1.16958448
  Sum of centres and spreads ( -0.000000,  0.000000,147.652365 )    26.77528528
 
      2    -0.793E-01     0.2141446181       26.7752852795       0.47  <-- CONV
        O_D=      0.0014659 O_OD=      0.6261688 O_TOT=     26.7752853 <-- SPRD
 Delta: O_D= -0.1251163E-02 O_OD= -0.7805668E-01 O_TOT= -0.7930785E-01 <-- DLTA
 ------------------------------------------------------------------------------
 Cycle:      3
  WF centre and spread    1  ( -0.000000,  0.000000,  0.000000 )     0.45815152
  WF centre and spread    2  ( -0.000000,  0.000000, -0.000000 )     0.45526097
  WF centre and spread    3  (  0.000000, -0.000000,  0.000000 )     0.45434732
  WF centre and spread    4  (  0.000000,  0.000000,  0.000000 )     0.45748192
  WF centre and spread    5  ( -0.000000,  0.000000,  0.000000 )     0.45586678
  WF centre and spread    6  (  0.000000,  0.000000,  6.419668 )     0.45815153
  WF centre and spread    7  ( -0.000000,  0.000000,  6.419668 )     0.45526097
  WF centre and spread    8  ( -0.000000,  0.000000,  6.419668 )     0.45434732
  WF centre and spread    9  ( -0.000000,  0.000000,  6.419668 )     0.45748193
  WF centre and spread   10  ( -0.000000, -0.000000,  6.419668 )     0.45586678
  WF centre and spread   11  (  1.545704,  0.255648,  7.489613 )     1.21389990
  WF centre and spread   12  (  1.545704,  0.256037,  7.489613 )     1.09184647
  WF centre and spread   13  (  1.545704,  0.347406,  7.489613 )     1.38693980
  WF centre and spread   14  ( -0.551456, -1.466439,  7.489621 )     1.21375347
  WF centre and spread   15  ( -0.494877, -1.506129,  7.485710 )     1.31514680
  WF centre and spread   16  ( -0.528342, -1.472660,  7.493526 )     1.16796902
  WF centre and spread   17  ( -0.994249,  1.210800,  7.489604 )     1.21375345
  WF centre and spread   18  ( -1.050828,  1.171109,  7.493516 )     1.31514677
  WF centre and spread   19  ( -1.017362,  1.204578,  7.485699 )     1.16796900
  WF centre and spread   20  ( -1.545704, -0.255648,  5.349723 )     1.21389990
  WF centre and spread   21  ( -1.545704, -0.256037,  5.349723 )     1.09184647
  WF centre and spread   22  ( -1.545704, -0.347406,  5.349723 )     1.38693980
  WF centre and spread   23  (  0.551456,  1.466439,  5.349715 )     1.21375347
  WF centre and spread   24  (  0.494877,  1.506129,  5.353627 )     1.31514680
  WF centre and spread   25  (  0.528342,  1.472660,  5.345810 )     1.16796902
  WF centre and spread   26  (  0.994249, -1.210800,  5.349732 )     1.21375345
  WF centre and spread   27  (  1.050828, -1.171109,  5.345820 )     1.31514677
  WF centre and spread   28  (  1.017362, -1.204578,  5.353637 )     1.16796900
  Sum of centres and spreads ( -0.000000,  0.000000,147.652365 )    26.73506644
 
      3    -0.402E-01     0.2010746990       26.7350664428       0.49  <-- CONV
        O_D=      0.0019161 O_OD=      0.5854998 O_TOT=     26.7350664 <-- SPRD
 Delta: O_D=  0.4502435E-03 O_OD= -0.4066908E-01 O_TOT= -0.4021884E-01 <-- DLTA
 ------------------------------------------------------------------------------
 Cycle:      4
  WF centre and spread    1  ( -0.000000,  0.000000,  0.000000 )     0.45916242
  WF centre and spread    2  ( -0.000000,  0.000000, -0.000000 )     0.45327763
  WF centre and spread    3  (  0.000000, -0.000000,  0.000000 )     0.45238639
  WF centre and spread    4  (  0.000000,  0.000000,  0.000000 )     0.45852673
  WF centre and spread    5  ( -0.000000,  0.000000,  0.000000 )     0.45390615
  WF centre and spread    6  (  0.000000,  0.000000,  6.419668 )     0.45916242
  WF centre and spread    7  ( -0.000000,  0.000000,  6.419668 )     0.45327763
  WF centre and spread    8  ( -0.000000,  0.000000,  6.419668 )     0.45238639
  WF centre and spread    9  ( -0.000000,  0.000000,  6.419668 )     0.45852674
  WF centre and spread   10  (  0.000000, -0.000000,  6.419668 )     0.45390615
  WF centre and spread   11  (  1.545704,  0.255736,  7.489613 )     1.21238806
  WF centre and spread   12  (  1.545704,  0.256075,  7.489613 )     1.09023683
  WF centre and spread   13  (  1.545704,  0.347507,  7.489613 )     1.38508874
  WF centre and spread   14  ( -0.551384, -1.466480,  7.489618 )     1.21228580
  WF centre and spread   15  ( -0.494816, -1.506157,  7.485700 )     1.31350843
  WF centre and spread   16  ( -0.528330, -1.472696,  7.493536 )     1.16624077
  WF centre and spread   17  ( -0.994321,  1.210758,  7.489608 )     1.21228578
  WF centre and spread   18  ( -1.050888,  1.171082,  7.493526 )     1.31350839
  WF centre and spread   19  ( -1.017375,  1.204543,  7.485690 )     1.16624075
  WF centre and spread   20  ( -1.545704, -0.255736,  5.349723 )     1.21238806
  WF centre and spread   21  ( -1.545704, -0.256075,  5.349723 )     1.09023683
  WF centre and spread   22  ( -1.545704, -0.347507,  5.349723 )     1.38508873
  WF centre and spread   23  (  0.551384,  1.466480,  5.349718 )     1.21228580
  WF centre and spread   24  (  0.494816,  1.506157,  5.353636 )     1.31350843
  WF centre and spread   25  (  0.528330,  1.472696,  5.345800 )     1.16624077
  WF centre and spread   26  (  0.994321, -1.210758,  5.349728 )     1.21228578
  WF centre and spread   27  (  1.050888, -1.171082,  5.345811 )     1.31350839
  WF centre and spread   28  (  1.017375, -1.204543,  5.353646 )     1.16624075
  Sum of centres and spreads ( -0.000000,  0.000000,147.652365 )    26.69808570
 
      4    -0.370E-01     0.1654114913       26.6980857045       0.52  <-- CONV
        O_D=      0.0024213 O_OD=      0.5480138 O_TOT=     26.6980857 <-- SPRD
 Delta: O_D=  0.5052236E-03 O_OD= -0.3748596E-01 O_TOT= -0.3698074E-01 <-- DLTA
 ------------------------------------------------------------------------------
 Cycle:      5
  WF centre and spread    1  ( -0.000000,  0.000000,  0.000000 )     0.46027956
  WF centre and spread    2  ( -0.000000,  0.000000, -0.000000 )     0.45158193
  WF centre and spread    3  ( -0.000000, -0.000000,  0.000000 )     0.45066128
  WF centre and spread    4  (  0.000000,  0.000000,  0.000000 )     0.45967046
  WF centre and spread    5  ( -0.000000,  0.000000,  0.000000 )     0.45218620
  WF centre and spread    6  (  0.000000,  0.000000,  6.419668 )     0.46027956
  WF centre and spread    7  ( -0.000000,  0.000000,  6.419668 )     0.45158193
  WF centre and spread    8  ( -0.000000,  0.000000,  6.419668 )     0.45066129
  WF centre and spread    9  ( -0.000000,  0.000000,  6.419668 )     0.45967046
  WF centre and spread   10  ( -0.000000, -0.000000,  6.419668 )     0.45218620
  WF centre and spread   11  (  1.545704,  0.255826,  7.489613 )     1.21135796
  WF centre and spread   12  (  1.545704,  0.256129,  7.489613 )     1.08912798
  WF centre and spread   13  (  1.545704,  0.347590,  7.489613 )     1.38382390
  WF centre and spread   14  ( -0.551308, -1.466525,  7.489617 )     1.21128422
  WF centre and spread   15  ( -0.494743, -1.506182,  7.485680 )     1.31234933
  WF centre and spread   16  ( -0.528296, -1.472736,  7.493554 )     1.16503030
  WF centre and spread   17  ( -0.994397,  1.210714,  7.489608 )     1.21128420
  WF centre and spread   18  ( -1.050961,  1.171056,  7.493545 )     1.31234930
  WF centre and spread   19  ( -1.017408,  1.204503,  7.485672 )     1.16503028
  WF centre and spread   20  ( -1.545704, -0.255826,  5.349723 )     1.21135796
  WF centre and spread   21  ( -1.545704, -0.256129,  5.349723 )     1.08912797
  WF centre and spread   22  ( -1.545704, -0.347590,  5.349723 )     1.38382390
  WF centre and spread   23  (  0.551308,  1.466525,  5.349719 )     1.21128422
  WF centre and spread   24  (  0.494743,  1.506182,  5.353656 )     1.31234933
  WF centre and spread   25  (  0.528296,  1.472736,  5.345783 )     1.16503030
  WF centre and spread   26  (  0.994397, -1.210714,  5.349728 )     1.21128420
  WF centre and spread   27  (  1.050961, -1.171056,  5.345791 )     1.31234930
  WF centre and spread   28  (  1.017408, -1.204503,  5.353664 )     1.16503028
  Sum of centres and spreads ( -0.000000,  0.000000,147.652365 )    26.67203384
 
      5    -0.261E-01     0.1460872525       26.6720338389       0.54  <-- CONV
        O_D=      0.0022564 O_OD=      0.5221269 O_TOT=     26.6720338 <-- SPRD
 Delta: O_D= -0.1649383E-03 O_OD= -0.2588693E-01 O_TOT= -0.2605187E-01 <-- DLTA
 ------------------------------------------------------------------------------
 Cycle:      6
  WF centre and spread    1  ( -0.000000,  0.000000,  0.000000 )     0.46134030
  WF centre and spread    2  ( -0.000000,  0.000000, -0.000000 )     0.45015158
  WF centre and spread    3  ( -0.000000, -0.000000,  0.000000 )     0.44917702
  WF centre and spread    4  (  0.000000,  0.000000,  0.000000 )     0.46075480
  WF centre and spread    5  ( -0.000000,  0.000000,  0.000000 )     0.45071199
  WF centre and spread    6  (  0.000000,  0.000000,  6.419668 )     0.46134030
  WF centre and spread    7  ( -0.000000,  0.000000,  6.419668 )     0.45015158
  WF centre and spread    8  ( -0.000000,  0.000000,  6.419668 )     0.44917702
  WF centre and spread    9  ( -0.000000,  0.000000,  6.419668 )     0.46075480
  WF centre and spread   10  ( -0.000000, -0.000000,  6.419668 )     0.45071199
  WF centre and spread   11  (  1.545704,  0.255912,  7.489613 )     1.21053925
  WF centre and spread   12  (  1.545704,  0.256194,  7.489613 )     1.08822212
  WF centre and spread   13  (  1.545704,  0.347661,  7.489613 )     1.38278102
  WF centre and spread   14  ( -0.551233, -1.466570,  7.489618 )     1.21049315
  WF centre and spread   15  ( -0.494670, -1.506203,  7.485651 )     1.31136857
  WF centre and spread   16  ( -0.528256, -1.472782,  7.493579 )     1.16399857
  WF centre and spread   17  ( -0.994472,  1.210669,  7.489608 )     1.21049313
  WF centre and spread   18  ( -1.051034,  1.171035,  7.493574 )     1.31136854
  WF centre and spread   19  ( -1.017449,  1.204457,  7.485647 )     1.16399855
  WF centre and spread   20  ( -1.545704, -0.255912,  5.349723 )     1.21053925
  WF centre and spread   21  ( -1.545704, -0.256194,  5.349723 )     1.08822211
  WF centre and spread   22  ( -1.545704, -0.347661,  5.349723 )     1.38278102
  WF centre and spread   23  (  0.551233,  1.466570,  5.349718 )     1.21049315
  WF centre and spread   24  (  0.494670,  1.506203,  5.353685 )     1.31136857
  WF centre and spread   25  (  0.528256,  1.472782,  5.345757 )     1.16399857
  WF centre and spread   26  (  0.994472, -1.210669,  5.349728 )     1.21049313
  WF centre and spread   27  (  1.051034, -1.171035,  5.345762 )     1.31136854
  WF centre and spread   28  (  1.017449, -1.204457,  5.353689 )     1.16399855
  Sum of centres and spreads ( -0.000000,  0.000000,147.652365 )    26.65079713
 
      6    -0.212E-01     0.1291618832       26.6507971274       0.56  <-- CONV
        O_D=      0.0017662 O_OD=      0.5013804 O_TOT=     26.6507971 <-- SPRD
 Delta: O_D= -0.4902177E-03 O_OD= -0.2074649E-01 O_TOT= -0.2123671E-01 <-- DLTA
 ------------------------------------------------------------------------------
 Cycle:      7
  WF centre and spread    1  ( -0.000000,  0.000000,  0.000000 )     0.46102899
  WF centre and spread    2  ( -0.000000,  0.000000, -0.000000 )     0.44987641
  WF centre and spread    3  ( -0.000000, -0.000000,  0.000000 )     0.44891107
  WF centre and spread    4  (  0.000000,  0.000000,  0.000000 )     0.46044290
  WF centre and spread    5  ( -0.000000,  0.000000,  0.000000 )     0.45043871
  WF centre and spread    6  (  0.000000,  0.000000,  6.419668 )     0.46102900
  WF centre and spread    7  ( -0.000000,  0.000000,  6.419668 )     0.44987641
  WF centre and spread    8  ( -0.000000,  0.000000,  6.419668 )     0.44891107
  WF centre and spread    9  ( -0.000000,  0.000000,  6.419668 )     0.46044290
  WF centre and spread   10  ( -0.000000, -0.000000,  6.419668 )     0.45043871
  WF centre and spread   11  (  1.545704,  0.255915,  7.489613 )     1.21016134
  WF centre and spread   12  (  1.545704,  0.256203,  7.489613 )     1.08777034
  WF centre and spread   13  (  1.545704,  0.347672,  7.489613 )     1.38236000
  WF centre and spread   14  ( -0.551230, -1.466571,  7.489618 )     1.21010190
  WF centre and spread   15  ( -0.494665, -1.506206,  7.485645 )     1.31094727
  WF centre and spread   16  ( -0.528253, -1.472787,  7.493584 )     1.16356683
  WF centre and spread   17  ( -0.994474,  1.210668,  7.489608 )     1.21010188
  WF centre and spread   18  ( -1.051040,  1.171032,  7.493580 )     1.31094724
  WF centre and spread   19  ( -1.017451,  1.204452,  7.485641 )     1.16356681
  WF centre and spread   20  ( -1.545704, -0.255915,  5.349723 )     1.21016134
  WF centre and spread   21  ( -1.545704, -0.256203,  5.349723 )     1.08777034
  WF centre and spread   22  ( -1.545704, -0.347672,  5.349723 )     1.38236000
  WF centre and spread   23  (  0.551230,  1.466571,  5.349719 )     1.21010190
  WF centre and spread   24  (  0.494665,  1.506206,  5.353691 )     1.31094727
  WF centre and spread   25  (  0.528253,  1.472787,  5.345752 )     1.16356682
  WF centre and spread   26  (  0.994474, -1.210668,  5.349728 )     1.21010188
  WF centre and spread   27  (  1.051040, -1.171032,  5.345756 )     1.31094724
  WF centre and spread   28  (  1.017451, -1.204452,  5.353695 )     1.16356680
  Sum of centres and spreads ( -0.000000,  0.000000,147.652365 )    26.64044336
 
      7    -0.104E-01     0.1187941352       26.6404433603       0.59  <-- CONV
        O_D=      0.0016108 O_OD=      0.4911820 O_TOT=     26.6404434 <-- SPRD
 Delta: O_D= -0.1554202E-03 O_OD= -0.1019835E-01 O_TOT= -0.1035377E-01 <-- DLTA
 ------------------------------------------------------------------------------
 Cycle:      8
  WF centre and spread    1  ( -0.000000,  0.000000,  0.000000 )     0.46076184
  WF centre and spread    2  ( -0.000000,  0.000000, -0.000000 )     0.44941335
  WF centre and spread    3  ( -0.000000, -0.000000,  0.000000 )     0.44845257
  WF centre and spread    4  (  0.000000,  0.000000,  0.000000 )     0.46017250
  WF centre and spread    5  ( -0.000000,  0.000000,  0.000000 )     0.44996978
  WF centre and spread    6  (  0.000000,  0.000000,  6.419668 )     0.46076185
  WF centre and spread    7  ( -0.000000,  0.000000,  6.419668 )     0.44941335
  WF centre and spread    8  ( -0.000000,  0.000000,  6.419668 )     0.44845257
  WF centre and spread    9  ( -0.000000,  0.000000,  6.419668 )     0.46017250
  WF centre and spread   10  ( -0.000000, -0.000000,  6.419668 )     0.44996978
  WF centre and spread   11  (  1.545704,  0.255922,  7.489613 )     1.20980129
  WF centre and spread   12  (  1.545704,  0.256222,  7.489613 )     1.08735748
  WF centre and spread   13  (  1.545704,  0.347693,  7.489613 )     1.38201261
  WF centre and spread   14  ( -0.551223, -1.466574,  7.489617 )     1.20972512
  WF centre and spread   15  ( -0.494650, -1.506213,  7.485628 )     1.31056054
  WF centre and spread   16  ( -0.528243, -1.472800,  7.493601 )     1.16316121
  WF centre and spread   17  ( -0.994482,  1.210664,  7.489608 )     1.20972510
  WF centre and spread   18  ( -1.051054,  1.171026,  7.493597 )     1.31056051
  WF centre and spread   19  ( -1.017461,  1.204439,  7.485625 )     1.16316119
  WF centre and spread   20  ( -1.545704, -0.255922,  5.349723 )     1.20980129
  WF centre and spread   21  ( -1.545704, -0.256222,  5.349723 )     1.08735748
  WF centre and spread   22  ( -1.545704, -0.347693,  5.349723 )     1.38201261
  WF centre and spread   23  (  0.551223,  1.466574,  5.349719 )     1.20972512
  WF centre and spread   24  (  0.494650,  1.506213,  5.353708 )     1.31056054
  WF centre and spread   25  (  0.528243,  1.472800,  5.345736 )     1.16316121
  WF centre and spread   26  (  0.994482, -1.210664,  5.349728 )     1.20972510
  WF centre and spread   27  (  1.051054, -1.171026,  5.345739 )     1.31056051
  WF centre and spread   28  (  1.017461, -1.204439,  5.353711 )     1.16316119
  Sum of centres and spreads ( -0.000000,  0.000000,147.652365 )    26.62967023
 
      8    -0.108E-01     0.0874887650       26.6296702280       0.61  <-- CONV
        O_D=      0.0014127 O_OD=      0.4806070 O_TOT=     26.6296702 <-- SPRD
 Delta: O_D= -0.1980624E-03 O_OD= -0.1057507E-01 O_TOT= -0.1077313E-01 <-- DLTA
 ------------------------------------------------------------------------------
 Cycle:      9
  WF centre and spread    1  ( -0.000000,  0.000000,  0.000000 )     0.46055162
  WF centre and spread    2  ( -0.000000,  0.000000, -0.000000 )     0.44884401
  WF centre and spread    3  ( -0.000000, -0.000000,  0.000000 )     0.44788422
  WF centre and spread    4  (  0.000000,  0.000000,  0.000000 )     0.45996102
  WF centre and spread    5  ( -0.000000,  0.000000,  0.000000 )     0.44939322
  WF centre and spread    6  (  0.000000,  0.000000,  6.419668 )     0.46055163
  WF centre and spread    7  ( -0.000000,  0.000000,  6.419668 )     0.44884401
  WF centre and spread    8  ( -0.000000,  0.000000,  6.419668 )     0.44788422
  WF centre and spread    9  ( -0.000000,  0.000000,  6.419668 )     0.45996103
  WF centre and spread   10  ( -0.000000, -0.000000,  6.419668 )     0.44939322
  WF centre and spread   11  (  1.545704,  0.255930,  7.489613 )     1.20942889
  WF centre and spread   12  (  1.545704,  0.256248,  7.489613 )     1.08693173
  WF centre and spread   13  (  1.545704,  0.347716,  7.489613 )     1.38179023
  WF centre and spread   14  ( -0.551211, -1.466581,  7.489617 )     1.20933953
  WF centre and spread   15  ( -0.494624, -1.506222,  7.485601 )     1.31023397
  WF centre and spread   16  ( -0.528223, -1.472817,  7.493626 )     1.16273279
  WF centre and spread   17  ( -0.994493,  1.210658,  7.489608 )     1.20933951
  WF centre and spread   18  ( -1.051081,  1.171017,  7.493624 )     1.31023393
  WF centre and spread   19  ( -1.017481,  1.204422,  7.485600 )     1.16273277
  WF centre and spread   20  ( -1.545704, -0.255930,  5.349723 )     1.20942889
  WF centre and spread   21  ( -1.545704, -0.256248,  5.349723 )     1.08693173
  WF centre and spread   22  ( -1.545704, -0.347716,  5.349723 )     1.38179023
  WF centre and spread   23  (  0.551211,  1.466581,  5.349719 )     1.20933953
  WF centre and spread   24  (  0.494624,  1.506222,  5.353735 )     1.31023397
  WF centre and spread   25  (  0.528223,  1.472817,  5.345710 )     1.16273279
  WF centre and spread   26  (  0.994493, -1.210658,  5.349728 )     1.20933951
  WF centre and spread   27  (  1.051081, -1.171017,  5.345712 )     1.31023393
  WF centre and spread   28  (  1.017481, -1.204422,  5.353736 )     1.16273277
  Sum of centres and spreads ( -0.000000,  0.000000,147.652365 )    26.61879488
 
      9    -0.109E-01     0.0876063489       26.6187948765       0.63  <-- CONV
        O_D=      0.0013515 O_OD=      0.4697928 O_TOT=     26.6187949 <-- SPRD
 Delta: O_D= -0.6117671E-04 O_OD= -0.1081417E-01 O_TOT= -0.1087535E-01 <-- DLTA
 ------------------------------------------------------------------------------
 Cycle:     10
  WF centre and spread    1  ( -0.000000,  0.000000,  0.000000 )     0.46063819
  WF centre and spread    2  ( -0.000000,  0.000000, -0.000000 )     0.44838848
  WF centre and spread    3  ( -0.000000, -0.000000,  0.000000 )     0.44743452
  WF centre and spread    4  (  0.000000,  0.000000,  0.000000 )     0.46005178
  WF centre and spread    5  ( -0.000000,  0.000000,  0.000000 )     0.44893770
  WF centre and spread    6  (  0.000000,  0.000000,  6.419668 )     0.46063819
  WF centre and spread    7  ( -0.000000,  0.000000,  6.419668 )     0.44838848
  WF centre and spread    8  ( -0.000000,  0.000000,  6.419668 )     0.44743452
  WF centre and spread    9  ( -0.000000,  0.000000,  6.419668 )     0.46005178
  WF centre and spread   10  ( -0.000000, -0.000000,  6.419668 )     0.44893770
  WF centre and spread   11  (  1.545704,  0.255941,  7.489613 )     1.20904832
  WF centre and spread   12  (  1.545704,  0.256278,  7.489613 )     1.08644134
  WF centre and spread   13  (  1.545704,  0.347745,  7.489613 )     1.38160822
  WF centre and spread   14  ( -0.551200, -1.466588,  7.489617 )     1.20895240
  WF centre and spread   15  ( -0.494593, -1.506233,  7.485574 )     1.30996018
  WF centre and spread   16  ( -0.528203, -1.472834,  7.493651 )     1.16226295
  WF centre and spread   17  ( -0.994505,  1.210651,  7.489608 )     1.20895238
  WF centre and spread   18  ( -1.051112,  1.171006,  7.493651 )     1.30996015
  WF centre and spread   19  ( -1.017501,  1.204404,  7.485574 )     1.16226293
  WF centre and spread   20  ( -1.545704, -0.255941,  5.349723 )     1.20904832
  WF centre and spread   21  ( -1.545704, -0.256278,  5.349723 )     1.08644134
  WF centre and spread   22  ( -1.545704, -0.347745,  5.349723 )     1.38160822
  WF centre and spread   23  (  0.551200,  1.466588,  5.349719 )     1.20895240
  WF centre and spread   24  (  0.494593,  1.506233,  5.353762 )     1.30996018
  WF centre and spread   25  (  0.528203,  1.472834,  5.345685 )     1.16226295
  WF centre and spread   26  (  0.994505, -1.210651,  5.349728 )     1.20895238
  WF centre and spread   27  (  1.051112, -1.171006,  5.345685 )     1.30996015
  WF centre and spread   28  (  1.017501, -1.204404,  5.353762 )     1.16226293
  Sum of centres and spreads ( -0.000000,  0.000000,147.652365 )    26.60979911
 
     10    -0.900E-02     0.0848896223       26.6097991072       0.66  <-- CONV
        O_D=      0.0014505 O_OD=      0.4606981 O_TOT=     26.6097991 <-- SPRD
 Delta: O_D=  0.9895605E-04 O_OD= -0.9094725E-02 O_TOT= -0.8995769E-02 <-- DLTA
 ------------------------------------------------------------------------------
 Cycle:     11
  WF centre and spread    1  ( -0.000000,  0.000000,  0.000000 )     0.46100403
  WF centre and spread    2  ( -0.000000,  0.000000, -0.000000 )     0.44793501
  WF centre and spread    3  ( -0.000000, -0.000000,  0.000000 )     0.44699059
  WF centre and spread    4  (  0.000000,  0.000000,  0.000000 )     0.46042541
  WF centre and spread    5  ( -0.000000,  0.000000,  0.000000 )     0.44848587
  WF centre and spread    6  (  0.000000,  0.000000,  6.419668 )     0.46100403
  WF centre and spread    7  ( -0.000000,  0.000000,  6.419668 )     0.44793501
  WF centre and spread    8  ( -0.000000,  0.000000,  6.419668 )     0.44699059
  WF centre and spread    9  ( -0.000000,  0.000000,  6.419668 )     0.46042542
  WF centre and spread   10  ( -0.000000, -0.000000,  6.419668 )     0.44848587
  WF centre and spread   11  (  1.545704,  0.255956,  7.489613 )     1.20859872
  WF centre and spread   12  (  1.545704,  0.256315,  7.489613 )     1.08581359
  WF centre and spread   13  (  1.545704,  0.347781,  7.489613 )     1.38140057
  WF centre and spread   14  ( -0.551186, -1.466595,  7.489617 )     1.20850926
  WF centre and spread   15  ( -0.494557, -1.506246,  7.485546 )     1.30966593
  WF centre and spread   16  ( -0.528184, -1.472854,  7.493679 )     1.16166977
  WF centre and spread   17  ( -0.994518,  1.210644,  7.489609 )     1.20850924
  WF centre and spread   18  ( -1.051147,  1.170992,  7.493680 )     1.30966590
  WF centre and spread   19  ( -1.017520,  1.204384,  7.485547 )     1.16166975
  WF centre and spread   20  ( -1.545704, -0.255956,  5.349723 )     1.20859872
  WF centre and spread   21  ( -1.545704, -0.256315,  5.349723 )     1.08581359
  WF centre and spread   22  ( -1.545704, -0.347781,  5.349723 )     1.38140057
  WF centre and spread   23  (  0.551186,  1.466595,  5.349720 )     1.20850926
  WF centre and spread   24  (  0.494557,  1.506246,  5.353790 )     1.30966593
  WF centre and spread   25  (  0.528184,  1.472854,  5.345657 )     1.16166977
  WF centre and spread   26  (  0.994518, -1.210644,  5.349727 )     1.20850924
  WF centre and spread   27  (  1.051147, -1.170992,  5.345656 )     1.30966590
  WF centre and spread   28  (  1.017520, -1.204384,  5.353789 )     1.16166975
  Sum of centres and spreads ( -0.000000,  0.000000,147.652365 )    26.60068728
 
     11    -0.911E-02     0.0812936052       26.6006872749       0.68  <-- CONV
        O_D=      0.0015922 O_OD=      0.4514445 O_TOT=     26.6006873 <-- SPRD
 Delta: O_D=  0.1416963E-03 O_OD= -0.9253529E-02 O_TOT= -0.9111832E-02 <-- DLTA
 ------------------------------------------------------------------------------
 Cycle:     12
  WF centre and spread    1  ( -0.000000,  0.000000,  0.000000 )     0.46178862
  WF centre and spread    2  ( -0.000000,  0.000000, -0.000000 )     0.44759819
  WF centre and spread    3  ( -0.000000, -0.000000,  0.000000 )     0.44666396
  WF centre and spread    4  (  0.000000,  0.000000,  0.000000 )     0.46122180
  WF centre and spread    5  ( -0.000000,  0.000000,  0.000000 )     0.44814880
  WF centre and spread    6  (  0.000000,  0.000000,  6.419668 )     0.46178862
  WF centre and spread    7  ( -0.000000, -0.000000,  6.419668 )     0.44759819
  WF centre and spread    8  ( -0.000000,  0.000000,  6.419668 )     0.44666396
  WF centre and spread    9  ( -0.000000,  0.000000,  6.419668 )     0.46122180
  WF centre and spread   10  ( -0.000000, -0.000000,  6.419668 )     0.44814880
  WF centre and spread   11  (  1.545704,  0.255970,  7.489613 )     1.20812156
  WF centre and spread   12  (  1.545704,  0.256346,  7.489613 )     1.08514785
  WF centre and spread   13  (  1.545704,  0.347806,  7.489613 )     1.38104782
  WF centre and spread   14  ( -0.551175, -1.466601,  7.489615 )     1.20805789
  WF centre and spread   15  ( -0.494526, -1.506255,  7.485525 )     1.30929403
  WF centre and spread   16  ( -0.528173, -1.472870,  7.493700 )     1.16101732
  WF centre and spread   17  ( -0.994530,  1.210637,  7.489610 )     1.20805787
  WF centre and spread   18  ( -1.051178,  1.170984,  7.493701 )     1.30929399
  WF centre and spread   19  ( -1.017531,  1.204368,  7.485526 )     1.16101730
  WF centre and spread   20  ( -1.545704, -0.255970,  5.349723 )     1.20812156
  WF centre and spread   21  ( -1.545704, -0.256346,  5.349723 )     1.08514785
  WF centre and spread   22  ( -1.545704, -0.347806,  5.349723 )     1.38104782
  WF centre and spread   23  (  0.551175,  1.466601,  5.349721 )     1.20805789
  WF centre and spread   24  (  0.494526,  1.506255,  5.353812 )     1.30929403
  WF centre and spread   25  (  0.528173,  1.472870,  5.345636 )     1.16101732
  WF centre and spread   26  (  0.994530, -1.210637,  5.349726 )     1.20805787
  WF centre and spread   27  (  1.051178, -1.170984,  5.345635 )     1.30929399
  WF centre and spread   28  (  1.017531, -1.204368,  5.353811 )     1.16101730
  Sum of centres and spreads ( -0.000000,  0.000000,147.652365 )    26.59295401
 
     12    -0.773E-02     0.0692418698       26.5929540101       0.70  <-- CONV
        O_D=      0.0015710 O_OD=      0.4437324 O_TOT=     26.5929540 <-- SPRD
 Delta: O_D= -0.2116950E-04 O_OD= -0.7712095E-02 O_TOT= -0.7733265E-02 <-- DLTA
 ------------------------------------------------------------------------------
 Cycle:     13
  WF centre and spread    1  ( -0.000000,  0.000000,  0.000000 )     0.46175717
  WF centre and spread    2  ( -0.000000,  0.000000, -0.000000 )     0.44751172
  WF centre and spread    3  ( -0.000000, -0.000000,  0.000000 )     0.44657532
  WF centre and spread    4  (  0.000000,  0.000000,  0.000000 )     0.46119052
  WF centre and spread    5  ( -0.000000,  0.000000,  0.000000 )     0.44805715
  WF centre and spread    6  (  0.000000,  0.000000,  6.419668 )     0.46175717
  WF centre and spread    7  ( -0.000000, -0.000000,  6.419668 )     0.44751172
  WF centre and spread    8  ( -0.000000,  0.000000,  6.419668 )     0.44657532
  WF centre and spread    9  ( -0.000000,  0.000000,  6.419668 )     0.46119053
  WF centre and spread   10  ( -0.000000, -0.000000,  6.419668 )     0.44805715
  WF centre and spread   11  (  1.545704,  0.255971,  7.489613 )     1.20799797
  WF centre and spread   12  (  1.545704,  0.256344,  7.489613 )     1.08500245
  WF centre and spread   13  (  1.545704,  0.347806,  7.489613 )     1.38088703
  WF centre and spread   14  ( -0.551174, -1.466602,  7.489615 )     1.20793392
  WF centre and spread   15  ( -0.494524, -1.506254,  7.485527 )     1.30914361
  WF centre and spread   16  ( -0.528176, -1.472870,  7.493698 )     1.16086891
  WF centre and spread   17  ( -0.994530,  1.210637,  7.489610 )     1.20793390
  WF centre and spread   18  ( -1.051180,  1.170984,  7.493699 )     1.30914358
  WF centre and spread   19  ( -1.017529,  1.204368,  7.485528 )     1.16086889
  WF centre and spread   20  ( -1.545704, -0.255971,  5.349723 )     1.20799797
  WF centre and spread   21  ( -1.545704, -0.256344,  5.349723 )     1.08500245
  WF centre and spread   22  ( -1.545704, -0.347806,  5.349723 )     1.38088703
  WF centre and spread   23  (  0.551174,  1.466602,  5.349721 )     1.20793392
  WF centre and spread   24  (  0.494524,  1.506254,  5.353809 )     1.30914361
  WF centre and spread   25  (  0.528176,  1.472870,  5.345638 )     1.16086891
  WF centre and spread   26  (  0.994530, -1.210637,  5.349726 )     1.20793390
  WF centre and spread   27  (  1.051180, -1.170984,  5.345637 )     1.30914358
  WF centre and spread   28  (  1.017529, -1.204368,  5.353808 )     1.16086889
  Sum of centres and spreads ( -0.000000,  0.000000,147.652365 )    26.58974430
 
     13    -0.321E-02     0.0721108314       26.5897443032       0.72  <-- CONV
        O_D=      0.0014972 O_OD=      0.4405965 O_TOT=     26.5897443 <-- SPRD
 Delta: O_D= -0.7376649E-04 O_OD= -0.3135940E-02 O_TOT= -0.3209707E-02 <-- DLTA
 ------------------------------------------------------------------------------
 Cycle:     14
  WF centre and spread    1  ( -0.000000,  0.000000,  0.000000 )     0.46203727
  WF centre and spread    2  ( -0.000000,  0.000000, -0.000000 )     0.44738483
  WF centre and spread    3  ( -0.000000, -0.000000,  0.000000 )     0.44643887
  WF centre and spread    4  (  0.000000,  0.000000,  0.000000 )     0.46147210
  WF centre and spread    5  ( -0.000000,  0.000000,  0.000000 )     0.44791608
  WF centre and spread    6  (  0.000000,  0.000000,  6.419668 )     0.46203728
  WF centre and spread    7  ( -0.000000, -0.000000,  6.419668 )     0.44738484
  WF centre and spread    8  ( -0.000000,  0.000000,  6.419668 )     0.44643887
  WF centre and spread    9  ( -0.000000,  0.000000,  6.419668 )     0.46147210
  WF centre and spread   10  ( -0.000000, -0.000000,  6.419668 )     0.44791608
  WF centre and spread   11  (  1.545704,  0.255973,  7.489613 )     1.20786705
  WF centre and spread   12  (  1.545704,  0.256340,  7.489613 )     1.08484222
  WF centre and spread   13  (  1.545704,  0.347807,  7.489613 )     1.38066001
  WF centre and spread   14  ( -0.551173, -1.466603,  7.489615 )     1.20781166
  WF centre and spread   15  ( -0.494518, -1.506253,  7.485533 )     1.30895081
  WF centre and spread   16  ( -0.528182, -1.472870,  7.493692 )     1.16068552
  WF centre and spread   17  ( -0.994531,  1.210636,  7.489610 )     1.20781164
  WF centre and spread   18  ( -1.051186,  1.170986,  7.493692 )     1.30895077
  WF centre and spread   19  ( -1.017522,  1.204368,  7.485534 )     1.16068550
  WF centre and spread   20  ( -1.545704, -0.255973,  5.349723 )     1.20786705
  WF centre and spread   21  ( -1.545704, -0.256340,  5.349723 )     1.08484222
  WF centre and spread   22  ( -1.545704, -0.347807,  5.349723 )     1.38066001
  WF centre and spread   23  (  0.551173,  1.466603,  5.349721 )     1.20781166
  WF centre and spread   24  (  0.494518,  1.506253,  5.353803 )     1.30895081
  WF centre and spread   25  (  0.528182,  1.472870,  5.345645 )     1.16068552
  WF centre and spread   26  (  0.994531, -1.210636,  5.349726 )     1.20781164
  WF centre and spread   27  (  1.051186, -1.170986,  5.345644 )     1.30895077
  WF centre and spread   28  (  1.017522, -1.204368,  5.353802 )     1.16068550
  Sum of centres and spreads ( -0.000000,  0.000000,147.652365 )    26.58702870
 
     14    -0.272E-02     0.0428177615       26.5870287026       0.75  <-- CONV
        O_D=      0.0013774 O_OD=      0.4380007 O_TOT=     26.5870287 <-- SPRD
 Delta: O_D= -0.1198151E-03 O_OD= -0.2595786E-02 O_TOT= -0.2715601E-02 <-- DLTA
 ------------------------------------------------------------------------------
 Cycle:     15
  WF centre and spread    1  ( -0.000000,  0.000000,  0.000000 )     0.46253034
  WF centre and spread    2  ( -0.000000,  0.000000, -0.000000 )     0.44722430
  WF centre and spread    3  ( -0.000000, -0.000000,  0.000000 )     0.44626730
  WF centre and spread    4  (  0.000000,  0.000000,  0.000000 )     0.46197158
  WF centre and spread    5  ( -0.000000,  0.000000,  0.000000 )     0.44773884
  WF centre and spread    6  (  0.000000,  0.000000,  6.419668 )     0.46253035
  WF centre and spread    7  ( -0.000000, -0.000000,  6.419668 )     0.44722430
  WF centre and spread    8  ( -0.000000,  0.000000,  6.419668 )     0.44626731
  WF centre and spread    9  ( -0.000000,  0.000000,  6.419668 )     0.46197158
  WF centre and spread   10  ( -0.000000, -0.000000,  6.419668 )     0.44773884
  WF centre and spread   11  (  1.545704,  0.255976,  7.489613 )     1.20769883
  WF centre and spread   12  (  1.545704,  0.256334,  7.489613 )     1.08461106
  WF centre and spread   13  (  1.545704,  0.347812,  7.489613 )     1.38040572
  WF centre and spread   14  ( -0.551172, -1.466605,  7.489615 )     1.20765797
  WF centre and spread   15  ( -0.494504, -1.506253,  7.485543 )     1.30872873
  WF centre and spread   16  ( -0.528191, -1.472871,  7.493682 )     1.16042689
  WF centre and spread   17  ( -0.994533,  1.210634,  7.489611 )     1.20765795
  WF centre and spread   18  ( -1.051200,  1.170986,  7.493682 )     1.30872870
  WF centre and spread   19  ( -1.017514,  1.204367,  7.485543 )     1.16042687
  WF centre and spread   20  ( -1.545704, -0.255976,  5.349723 )     1.20769883
  WF centre and spread   21  ( -1.545704, -0.256334,  5.349723 )     1.08461106
  WF centre and spread   22  ( -1.545704, -0.347812,  5.349723 )     1.38040572
  WF centre and spread   23  (  0.551172,  1.466605,  5.349721 )     1.20765797
  WF centre and spread   24  (  0.494504,  1.506253,  5.353793 )     1.30872873
  WF centre and spread   25  (  0.528191,  1.472871,  5.345654 )     1.16042689
  WF centre and spread   26  (  0.994533, -1.210634,  5.349726 )     1.20765795
  WF centre and spread   27  (  1.051200, -1.170986,  5.345654 )     1.30872869
  WF centre and spread   28  (  1.017514, -1.204367,  5.353793 )     1.16042687
  Sum of centres and spreads ( -0.000000,  0.000000,147.652365 )    26.58415020
 
     15    -0.288E-02     0.0447970999       26.5841501950       0.77  <-- CONV
        O_D=      0.0013284 O_OD=      0.4351712 O_TOT=     26.5841502 <-- SPRD
 Delta: O_D= -0.4901855E-04 O_OD= -0.2829489E-02 O_TOT= -0.2878508E-02 <-- DLTA
 ------------------------------------------------------------------------------
 Cycle:     16
  WF centre and spread    1  ( -0.000000,  0.000000,  0.000000 )     0.46301196
  WF centre and spread    2  ( -0.000000,  0.000000, -0.000000 )     0.44712308
  WF centre and spread    3  ( -0.000000, -0.000000,  0.000000 )     0.44616189
  WF centre and spread    4  (  0.000000,  0.000000,  0.000000 )     0.46246149
  WF centre and spread    5  ( -0.000000,  0.000000,  0.000000 )     0.44762824
  WF centre and spread    6  (  0.000000,  0.000000,  6.419668 )     0.46301197
  WF centre and spread    7  ( -0.000000, -0.000000,  6.419668 )     0.44712308
  WF centre and spread    8  ( -0.000000,  0.000000,  6.419668 )     0.44616189
  WF centre and spread    9  ( -0.000000,  0.000000,  6.419668 )     0.46246149
  WF centre and spread   10  ( -0.000000, -0.000000,  6.419668 )     0.44762824
  WF centre and spread   11  (  1.545704,  0.255978,  7.489613 )     1.20754290
  WF centre and spread   12  (  1.545704,  0.256332,  7.489613 )     1.08437371
  WF centre and spread   13  (  1.545704,  0.347823,  7.489613 )     1.38022733
  WF centre and spread   14  ( -0.551171, -1.466606,  7.489615 )     1.20751237
  WF centre and spread   15  ( -0.494488, -1.506254,  7.485551 )     1.30856530
  WF centre and spread   16  ( -0.528197, -1.472874,  7.493675 )     1.16018512
  WF centre and spread   17  ( -0.994533,  1.210633,  7.489610 )     1.20751235
  WF centre and spread   18  ( -1.051216,  1.170984,  7.493674 )     1.30856527
  WF centre and spread   19  ( -1.017507,  1.204365,  7.485551 )     1.16018509
  WF centre and spread   20  ( -1.545704, -0.255978,  5.349723 )     1.20754290
  WF centre and spread   21  ( -1.545704, -0.256332,  5.349723 )     1.08437371
  WF centre and spread   22  ( -1.545704, -0.347823,  5.349723 )     1.38022733
  WF centre and spread   23  (  0.551171,  1.466606,  5.349721 )     1.20751237
  WF centre and spread   24  (  0.494488,  1.506254,  5.353785 )     1.30856530
  WF centre and spread   25  (  0.528197,  1.472874,  5.345661 )     1.16018511
  WF centre and spread   26  (  0.994533, -1.210633,  5.349726 )     1.20751235
  WF centre and spread   27  (  1.051216, -1.170984,  5.345662 )     1.30856527
  WF centre and spread   28  (  1.017507, -1.204365,  5.353785 )     1.16018509
  Sum of centres and spreads ( -0.000000,  0.000000,147.652365 )    26.58211222
 
     16    -0.204E-02     0.0426121745       26.5821122177       0.79  <-- CONV
        O_D=      0.0013652 O_OD=      0.4330965 O_TOT=     26.5821122 <-- SPRD
 Delta: O_D=  0.3677204E-04 O_OD= -0.2074749E-02 O_TOT= -0.2037977E-02 <-- DLTA
 ------------------------------------------------------------------------------
 Cycle:     17
  WF centre and spread    1  ( -0.000000,  0.000000,  0.000000 )     0.46339245
  WF centre and spread    2  ( -0.000000,  0.000000, -0.000000 )     0.44706463
  WF centre and spread    3  ( -0.000000, -0.000000,  0.000000 )     0.44610298
  WF centre and spread    4  (  0.000000,  0.000000,  0.000000 )     0.46284964
  WF centre and spread    5  ( -0.000000,  0.000000,  0.000000 )     0.44756522
  WF centre and spread    6  (  0.000000,  0.000000,  6.419668 )     0.46339245
  WF centre and spread    7  ( -0.000000, -0.000000,  6.419668 )     0.44706463
  WF centre and spread    8  ( -0.000000,  0.000000,  6.419668 )     0.44610299
  WF centre and spread    9  ( -0.000000,  0.000000,  6.419668 )     0.46284965
  WF centre and spread   10  ( -0.000000, -0.000000,  6.419668 )     0.44756523
  WF centre and spread   11  (  1.545704,  0.255979,  7.489613 )     1.20742308
  WF centre and spread   12  (  1.545704,  0.256332,  7.489613 )     1.08418640
  WF centre and spread   13  (  1.545704,  0.347834,  7.489613 )     1.38012176
  WF centre and spread   14  ( -0.551171, -1.466606,  7.489615 )     1.20739989
  WF centre and spread   15  ( -0.494473, -1.506257,  7.485555 )     1.30845942
  WF centre and spread   16  ( -0.528201, -1.472876,  7.493671 )     1.15999752
  WF centre and spread   17  ( -0.994534,  1.210633,  7.489610 )     1.20739987
  WF centre and spread   18  ( -1.051231,  1.170982,  7.493671 )     1.30845938
  WF centre and spread   19  ( -1.017503,  1.204362,  7.485555 )     1.15999750
  WF centre and spread   20  ( -1.545704, -0.255979,  5.349723 )     1.20742308
  WF centre and spread   21  ( -1.545704, -0.256332,  5.349723 )     1.08418640
  WF centre and spread   22  ( -1.545704, -0.347834,  5.349723 )     1.38012176
  WF centre and spread   23  (  0.551171,  1.466606,  5.349721 )     1.20739989
  WF centre and spread   24  (  0.494473,  1.506257,  5.353781 )     1.30845942
  WF centre and spread   25  (  0.528201,  1.472876,  5.345665 )     1.15999752
  WF centre and spread   26  (  0.994534, -1.210633,  5.349726 )     1.20739987
  WF centre and spread   27  (  1.051231, -1.170982,  5.345665 )     1.30845938
  WF centre and spread   28  (  1.017503, -1.204362,  5.353782 )     1.15999750
  Sum of centres and spreads ( -0.000000,  0.000000,147.652365 )    26.58083950
 
     17    -0.127E-02     0.0328784391       26.5808394957       0.82  <-- CONV
        O_D=      0.0013879 O_OD=      0.4318010 O_TOT=     26.5808395 <-- SPRD
 Delta: O_D=  0.2275503E-04 O_OD= -0.1295477E-02 O_TOT= -0.1272722E-02 <-- DLTA
 ------------------------------------------------------------------------------
 Cycle:     18
  WF centre and spread    1  ( -0.000000,  0.000000,  0.000000 )     0.46366807
  WF centre and spread    2  ( -0.000000,  0.000000, -0.000000 )     0.44703588
  WF centre and spread    3  ( -0.000000, -0.000000,  0.000000 )     0.44607518
  WF centre and spread    4  (  0.000000,  0.000000,  0.000000 )     0.46313096
  WF centre and spread    5  ( -0.000000,  0.000000,  0.000000 )     0.44753426
  WF centre and spread    6  (  0.000000,  0.000000,  6.419668 )     0.46366808
  WF centre and spread    7  ( -0.000000, -0.000000,  6.419668 )     0.44703588
  WF centre and spread    8  ( -0.000000,  0.000000,  6.419668 )     0.44607519
  WF centre and spread    9  ( -0.000000,  0.000000,  6.419668 )     0.46313096
  WF centre and spread   10  ( -0.000000, -0.000000,  6.419668 )     0.44753426
  WF centre and spread   11  (  1.545704,  0.255979,  7.489613 )     1.20733559
  WF centre and spread   12  (  1.545704,  0.256334,  7.489613 )     1.08405061
  WF centre and spread   13  (  1.545704,  0.347844,  7.489613 )     1.38005889
  WF centre and spread   14  ( -0.551171, -1.466606,  7.489615 )     1.20731780
  WF centre and spread   15  ( -0.494460, -1.506259,  7.485555 )     1.30839166
  WF centre and spread   16  ( -0.528205, -1.472879,  7.493670 )     1.15986385
  WF centre and spread   17  ( -0.994534,  1.210633,  7.489610 )     1.20731778
  WF centre and spread   18  ( -1.051245,  1.170980,  7.493670 )     1.30839162
  WF centre and spread   19  ( -1.017500,  1.204359,  7.485555 )     1.15986383
  WF centre and spread   20  ( -1.545704, -0.255979,  5.349723 )     1.20733559
  WF centre and spread   21  ( -1.545704, -0.256334,  5.349723 )     1.08405061
  WF centre and spread   22  ( -1.545704, -0.347844,  5.349723 )     1.38005889
  WF centre and spread   23  (  0.551171,  1.466606,  5.349721 )     1.20731780
  WF centre and spread   24  (  0.494460,  1.506259,  5.353781 )     1.30839166
  WF centre and spread   25  (  0.528205,  1.472879,  5.345666 )     1.15986385
  WF centre and spread   26  (  0.994534, -1.210633,  5.349726 )     1.20731778
  WF centre and spread   27  (  1.051245, -1.170980,  5.345666 )     1.30839162
  WF centre and spread   28  (  1.017500, -1.204359,  5.353781 )     1.15986383
  Sum of centres and spreads ( -0.000000,  0.000000,147.652365 )    26.58007195
 
     18    -0.768E-03     0.0254260641       26.5800719536       0.84  <-- CONV
        O_D=      0.0013750 O_OD=      0.4310464 O_TOT=     26.5800720 <-- SPRD
 Delta: O_D= -0.1293522E-04 O_OD= -0.7546069E-03 O_TOT= -0.7675421E-03 <-- DLTA
 ------------------------------------------------------------------------------
 Cycle:     19
  WF centre and spread    1  ( -0.000000,  0.000000,  0.000000 )     0.46366409
  WF centre and spread    2  ( -0.000000,  0.000000, -0.000000 )     0.44703135
  WF centre and spread    3  ( -0.000000, -0.000000,  0.000000 )     0.44607116
  WF centre and spread    4  (  0.000000,  0.000000,  0.000000 )     0.46312701
  WF centre and spread    5  ( -0.000000,  0.000000,  0.000000 )     0.44752950
  WF centre and spread    6  (  0.000000,  0.000000,  6.419668 )     0.46366409
  WF centre and spread    7  ( -0.000000, -0.000000,  6.419668 )     0.44703136
  WF centre and spread    8  ( -0.000000,  0.000000,  6.419668 )     0.44607116
  WF centre and spread    9  ( -0.000000,  0.000000,  6.419668 )     0.46312701
  WF centre and spread   10  ( -0.000000, -0.000000,  6.419668 )     0.44752950
  WF centre and spread   11  (  1.545704,  0.255978,  7.489613 )     1.20730924
  WF centre and spread   12  (  1.545704,  0.256335,  7.489613 )     1.08401910
  WF centre and spread   13  (  1.545704,  0.347845,  7.489613 )     1.38003940
  WF centre and spread   14  ( -0.551171, -1.466606,  7.489615 )     1.20729072
  WF centre and spread   15  ( -0.494457, -1.506259,  7.485554 )     1.30836962
  WF centre and spread   16  ( -0.528205, -1.472880,  7.493672 )     1.15983443
  WF centre and spread   17  ( -0.994533,  1.210633,  7.489610 )     1.20729069
  WF centre and spread   18  ( -1.051247,  1.170980,  7.493671 )     1.30836959
  WF centre and spread   19  ( -1.017500,  1.204359,  7.485554 )     1.15983441
  WF centre and spread   20  ( -1.545704, -0.255978,  5.349723 )     1.20730924
  WF centre and spread   21  ( -1.545704, -0.256335,  5.349723 )     1.08401910
  WF centre and spread   22  ( -1.545704, -0.347845,  5.349723 )     1.38003940
  WF centre and spread   23  (  0.551171,  1.466606,  5.349721 )     1.20729072
  WF centre and spread   24  (  0.494457,  1.506259,  5.353782 )     1.30836962
  WF centre and spread   25  (  0.528205,  1.472880,  5.345664 )     1.15983443
  WF centre and spread   26  (  0.994533, -1.210633,  5.349726 )     1.20729069
  WF centre and spread   27  (  1.051247, -1.170980,  5.345665 )     1.30836959
  WF centre and spread   28  (  1.017500, -1.204359,  5.353782 )     1.15983441
  Sum of centres and spreads ( -0.000000,  0.000000,147.652365 )    26.57956065
 
     19    -0.511E-03     0.0269686263       26.5795606521       0.86  <-- CONV
        O_D=      0.0013559 O_OD=      0.4305542 O_TOT=     26.5795607 <-- SPRD
 Delta: O_D= -0.1907774E-04 O_OD= -0.4922238E-03 O_TOT= -0.5113015E-03 <-- DLTA
 ------------------------------------------------------------------------------
 Cycle:     20
  WF centre and spread    1  ( -0.000000,  0.000000,  0.000000 )     0.46369151
  WF centre and spread    2  ( -0.000000,  0.000000, -0.000000 )     0.44703541
  WF centre and spread    3  ( -0.000000, -0.000000,  0.000000 )     0.44607679
  WF centre and spread    4  (  0.000000,  0.000000,  0.000000 )     0.46315483
  WF centre and spread    5  ( -0.000000,  0.000000,  0.000000 )     0.44753343
  WF centre and spread    6  (  0.000000,  0.000000,  6.419668 )     0.46369152
  WF centre and spread    7  ( -0.000000, -0.000000,  6.419668 )     0.44703541
  WF centre and spread    8  ( -0.000000,  0.000000,  6.419668 )     0.44607679
  WF centre and spread    9  ( -0.000000,  0.000000,  6.419668 )     0.46315483
  WF centre and spread   10  ( -0.000000, -0.000000,  6.419668 )     0.44753344
  WF centre and spread   11  (  1.545704,  0.255977,  7.489613 )     1.20726364
  WF centre and spread   12  (  1.545704,  0.256339,  7.489613 )     1.08395834
  WF centre and spread   13  (  1.545704,  0.347850,  7.489613 )     1.38002393
  WF centre and spread   14  ( -0.551172, -1.466605,  7.489615 )     1.20724554
  WF centre and spread   15  ( -0.494450, -1.506261,  7.485550 )     1.30834495
  WF centre and spread   16  ( -0.528206, -1.472882,  7.493675 )     1.15977792
  WF centre and spread   17  ( -0.994532,  1.210634,  7.489611 )     1.20724551
  WF centre and spread   18  ( -1.051254,  1.170978,  7.493675 )     1.30834492
  WF centre and spread   19  ( -1.017499,  1.204356,  7.485550 )     1.15977790
  WF centre and spread   20  ( -1.545704, -0.255977,  5.349723 )     1.20726364
  WF centre and spread   21  ( -1.545704, -0.256339,  5.349723 )     1.08395834
  WF centre and spread   22  ( -1.545704, -0.347850,  5.349723 )     1.38002393
  WF centre and spread   23  (  0.551172,  1.466605,  5.349721 )     1.20724554
  WF centre and spread   24  (  0.494450,  1.506261,  5.353786 )     1.30834495
  WF centre and spread   25  (  0.528206,  1.472882,  5.345661 )     1.15977792
  WF centre and spread   26  (  0.994532, -1.210634,  5.349726 )     1.20724551
  WF centre and spread   27  (  1.051254, -1.170978,  5.345661 )     1.30834492
  WF centre and spread   28  (  1.017499, -1.204356,  5.353786 )     1.15977790
  Sum of centres and spreads ( -0.000000,  0.000000,147.652365 )    26.57894927
 
     20    -0.611E-03     0.0200114797       26.5789492727       0.89  <-- CONV
        O_D=      0.0013246 O_OD=      0.4299741 O_TOT=     26.5789493 <-- SPRD
 Delta: O_D= -0.3136317E-04 O_OD= -0.5800162E-03 O_TOT= -0.6113794E-03 <-- DLTA
 ------------------------------------------------------------------------------
 Cycle:     21
  WF centre and spread    1  ( -0.000000,  0.000000,  0.000000 )     0.46376481
  WF centre and spread    2  ( -0.000000,  0.000000, -0.000000 )     0.44705563
  WF centre and spread    3  ( -0.000000, -0.000000,  0.000000 )     0.44610076
  WF centre and spread    4  (  0.000000,  0.000000,  0.000000 )     0.46322977
  WF centre and spread    5  ( -0.000000,  0.000000,  0.000000 )     0.44755485
  WF centre and spread    6  (  0.000000,  0.000000,  6.419668 )     0.46376481
  WF centre and spread    7  ( -0.000000, -0.000000,  6.419668 )     0.44705563
  WF centre and spread    8  ( -0.000000,  0.000000,  6.419668 )     0.44610076
  WF centre and spread    9  ( -0.000000,  0.000000,  6.419668 )     0.46322977
  WF centre and spread   10  ( -0.000000, -0.000000,  6.419668 )     0.44755485
  WF centre and spread   11  (  1.545704,  0.255974,  7.489613 )     1.20719528
  WF centre and spread   12  (  1.545704,  0.256345,  7.489613 )     1.08385342
  WF centre and spread   13  (  1.545704,  0.347860,  7.489613 )     1.38001522
  WF centre and spread   14  ( -0.551174, -1.466604,  7.489615 )     1.20717918
  WF centre and spread   15  ( -0.494436, -1.506264,  7.485544 )     1.30832066
  WF centre and spread   16  ( -0.528208, -1.472885,  7.493681 )     1.15967800
  WF centre and spread   17  ( -0.994531,  1.210635,  7.489611 )     1.20717915
  WF centre and spread   18  ( -1.051268,  1.170975,  7.493681 )     1.30832063
  WF centre and spread   19  ( -1.017497,  1.204353,  7.485544 )     1.15967798
  WF centre and spread   20  ( -1.545704, -0.255974,  5.349723 )     1.20719528
  WF centre and spread   21  ( -1.545704, -0.256345,  5.349723 )     1.08385342
  WF centre and spread   22  ( -1.545704, -0.347860,  5.349723 )     1.38001522
  WF centre and spread   23  (  0.551174,  1.466604,  5.349721 )     1.20717918
  WF centre and spread   24  (  0.494436,  1.506264,  5.353792 )     1.30832066
  WF centre and spread   25  (  0.528208,  1.472885,  5.345655 )     1.15967799
  WF centre and spread   26  (  0.994531, -1.210635,  5.349725 )     1.20717916
  WF centre and spread   27  (  1.051268, -1.170975,  5.345655 )     1.30832063
  WF centre and spread   28  (  1.017497, -1.204353,  5.353792 )     1.15967797
  Sum of centres and spreads ( -0.000000,  0.000000,147.652365 )    26.57825068
 
     21    -0.699E-03     0.0210982846       26.5782506759       0.91  <-- CONV
        O_D=      0.0013208 O_OD=      0.4292794 O_TOT=     26.5782507 <-- SPRD
 Delta: O_D= -0.3808675E-05 O_OD= -0.6947881E-03 O_TOT= -0.6985968E-03 <-- DLTA
 ------------------------------------------------------------------------------
 Cycle:     22
  WF centre and spread    1  ( -0.000000,  0.000000,  0.000000 )     0.46388016
  WF centre and spread    2  ( -0.000000,  0.000000, -0.000000 )     0.44708921
  WF centre and spread    3  ( -0.000000, -0.000000,  0.000000 )     0.44613922
  WF centre and spread    4  (  0.000000,  0.000000,  0.000000 )     0.46334748
  WF centre and spread    5  ( -0.000000,  0.000000,  0.000000 )     0.44759011
  WF centre and spread    6  (  0.000000,  0.000000,  6.419668 )     0.46388016
  WF centre and spread    7  ( -0.000000, -0.000000,  6.419668 )     0.44708921
  WF centre and spread    8  ( -0.000000,  0.000000,  6.419668 )     0.44613923
  WF centre and spread    9  ( -0.000000,  0.000000,  6.419668 )     0.46334748
  WF centre and spread   10  ( -0.000000, -0.000000,  6.419668 )     0.44759011
  WF centre and spread   11  (  1.545704,  0.255971,  7.489613 )     1.20711855
  WF centre and spread   12  (  1.545704,  0.256350,  7.489613 )     1.08372104
  WF centre and spread   13  (  1.545704,  0.347871,  7.489613 )     1.38000800
  WF centre and spread   14  ( -0.551176, -1.466602,  7.489614 )     1.20710607
  WF centre and spread   15  ( -0.494420, -1.506268,  7.485538 )     1.30829938
  WF centre and spread   16  ( -0.528211, -1.472888,  7.493687 )     1.15955118
  WF centre and spread   17  ( -0.994529,  1.210636,  7.489611 )     1.20710604
  WF centre and spread   18  ( -1.051284,  1.170971,  7.493687 )     1.30829935
  WF centre and spread   19  ( -1.017494,  1.204350,  7.485538 )     1.15955116
  WF centre and spread   20  ( -1.545704, -0.255971,  5.349723 )     1.20711855
  WF centre and spread   21  ( -1.545704, -0.256350,  5.349723 )     1.08372104
  WF centre and spread   22  ( -1.545704, -0.347871,  5.349723 )     1.38000800
  WF centre and spread   23  (  0.551176,  1.466602,  5.349722 )     1.20710607
  WF centre and spread   24  (  0.494420,  1.506268,  5.353798 )     1.30829938
  WF centre and spread   25  (  0.528211,  1.472888,  5.345649 )     1.15955118
  WF centre and spread   26  (  0.994529, -1.210636,  5.349725 )     1.20710604
  WF centre and spread   27  (  1.051284, -1.170971,  5.345649 )     1.30829934
  WF centre and spread   28  (  1.017494, -1.204350,  5.353798 )     1.15955116
  Sum of centres and spreads ( -0.000000,  0.000000,147.652365 )    26.57761391
 
[...]
 Delta: O_D=  0.2867684E-06 O_OD= -0.3577220E-05 O_TOT= -0.3290452E-05 <-- DLTA
 ------------------------------------------------------------------------------
 Cycle:     95
  WF centre and spread    1  ( -0.000000,  0.000000,  0.000000 )     0.46519673
  WF centre and spread    2  ( -0.000000,  0.000000, -0.000000 )     0.44722068
  WF centre and spread    3  ( -0.000000, -0.000000,  0.000000 )     0.44626916
  WF centre and spread    4  (  0.000000,  0.000000,  0.000000 )     0.46468457
  WF centre and spread    5  ( -0.000000,  0.000000,  0.000000 )     0.44770078
  WF centre and spread    6  (  0.000000,  0.000000,  6.419668 )     0.46519673
  WF centre and spread    7  ( -0.000000, -0.000000,  6.419668 )     0.44722068
  WF centre and spread    8  ( -0.000000,  0.000000,  6.419668 )     0.44626916
  WF centre and spread    9  ( -0.000000,  0.000000,  6.419668 )     0.46468457
  WF centre and spread   10  ( -0.000000, -0.000000,  6.419668 )     0.44770078
  WF centre and spread   11  (  1.545704,  0.255960,  7.489613 )     1.20689168
  WF centre and spread   12  (  1.545704,  0.256358,  7.489613 )     1.08288012
  WF centre and spread   13  (  1.545704,  0.347907,  7.489613 )     1.37975416
  WF centre and spread   14  ( -0.551188, -1.466600,  7.489607 )     1.20732989
  WF centre and spread   15  ( -0.493998, -1.506443,  7.485572 )     1.30902535
  WF centre and spread   16  ( -0.528587, -1.472731,  7.493660 )     1.15723096
  WF centre and spread   17  ( -0.994517,  1.210639,  7.489618 )     1.20732987
  WF centre and spread   18  ( -1.051707,  1.170796,  7.493653 )     1.30902532
  WF centre and spread   19  ( -1.017117,  1.204507,  7.485566 )     1.15723094
  WF centre and spread   20  ( -1.545704, -0.255960,  5.349723 )     1.20689168
  WF centre and spread   21  ( -1.545704, -0.256358,  5.349723 )     1.08288012
  WF centre and spread   22  ( -1.545704, -0.347907,  5.349723 )     1.37975416
  WF centre and spread   23  (  0.551188,  1.466600,  5.349729 )     1.20732989
  WF centre and spread   24  (  0.493998,  1.506443,  5.353764 )     1.30902535
  WF centre and spread   25  (  0.528587,  1.472731,  5.345676 )     1.15723096
  WF centre and spread   26  (  0.994517, -1.210639,  5.349718 )     1.20732987
  WF centre and spread   27  (  1.051707, -1.170796,  5.345683 )     1.30902531
  WF centre and spread   28  (  1.017117, -1.204507,  5.353770 )     1.15723094
  Sum of centres and spreads ( -0.000000,  0.000000,147.652365 )    26.57554042
 
     95    -0.353E-05     0.0015460997       26.5755404179       2.64  <-- CONV
        O_D=      0.0013131 O_OD=      0.4265767 O_TOT=     26.5755404 <-- SPRD
 Delta: O_D=  0.5412945E-06 O_OD= -0.4073678E-05 O_TOT= -0.3532384E-05 <-- DLTA
 ------------------------------------------------------------------------------
 Cycle:     96
  WF centre and spread    1  ( -0.000000,  0.000000,  0.000000 )     0.46519466
  WF centre and spread    2  ( -0.000000,  0.000000, -0.000000 )     0.44722116
  WF centre and spread    3  ( -0.000000, -0.000000,  0.000000 )     0.44626974
  WF centre and spread    4  (  0.000000,  0.000000,  0.000000 )     0.46468252
  WF centre and spread    5  ( -0.000000,  0.000000,  0.000000 )     0.44770138
  WF centre and spread    6  (  0.000000,  0.000000,  6.419668 )     0.46519466
  WF centre and spread    7  ( -0.000000, -0.000000,  6.419668 )     0.44722116
  WF centre and spread    8  ( -0.000000,  0.000000,  6.419668 )     0.44626974
  WF centre and spread    9  ( -0.000000,  0.000000,  6.419668 )     0.46468252
  WF centre and spread   10  ( -0.000000, -0.000000,  6.419668 )     0.44770139
  WF centre and spread   11  (  1.545704,  0.255960,  7.489613 )     1.20689876
  WF centre and spread   12  (  1.545704,  0.256358,  7.489613 )     1.08287375
  WF centre and spread   13  (  1.545704,  0.347907,  7.489613 )     1.37975482
  WF centre and spread   14  ( -0.551188, -1.466600,  7.489607 )     1.20735372
  WF centre and spread   15  ( -0.493983, -1.506449,  7.485574 )     1.30906709
  WF centre and spread   16  ( -0.528602, -1.472725,  7.493659 )     1.15716481
  WF centre and spread   17  ( -0.994517,  1.210639,  7.489619 )     1.20735370
  WF centre and spread   18  ( -1.051722,  1.170789,  7.493652 )     1.30906706
  WF centre and spread   19  ( -1.017103,  1.204514,  7.485567 )     1.15716479
  WF centre and spread   20  ( -1.545704, -0.255960,  5.349723 )     1.20689876
  WF centre and spread   21  ( -1.545704, -0.256358,  5.349723 )     1.08287375
  WF centre and spread   22  ( -1.545704, -0.347907,  5.349723 )     1.37975482
  WF centre and spread   23  (  0.551188,  1.466600,  5.349729 )     1.20735373
  WF centre and spread   24  (  0.493983,  1.506449,  5.353762 )     1.30906709
  WF centre and spread   25  (  0.528602,  1.472725,  5.345677 )     1.15716481
  WF centre and spread   26  (  0.994517, -1.210639,  5.349718 )     1.20735370
  WF centre and spread   27  (  1.051722, -1.170789,  5.345684 )     1.30906706
  WF centre and spread   28  (  1.017103, -1.204514,  5.353769 )     1.15716479
  Sum of centres and spreads ( -0.000000,  0.000000,147.652365 )    26.57553595
 
     96    -0.446E-05     0.0016149373       26.5755359540       2.66  <-- CONV
        O_D=      0.0013134 O_OD=      0.4265720 O_TOT=     26.5755360 <-- SPRD
 Delta: O_D=  0.2844832E-06 O_OD= -0.4748391E-05 O_TOT= -0.4463908E-05 <-- DLTA
 ------------------------------------------------------------------------------
 Cycle:     97
  WF centre and spread    1  ( -0.000000,  0.000000,  0.000000 )     0.46519511
  WF centre and spread    2  ( -0.000000,  0.000000, -0.000000 )     0.44722075
  WF centre and spread    3  ( -0.000000, -0.000000,  0.000000 )     0.44626926
  WF centre and spread    4  (  0.000000,  0.000000,  0.000000 )     0.46468296
  WF centre and spread    5  ( -0.000000,  0.000000,  0.000000 )     0.44770089
  WF centre and spread    6  (  0.000000,  0.000000,  6.419668 )     0.46519511
  WF centre and spread    7  ( -0.000000, -0.000000,  6.419668 )     0.44722075
  WF centre and spread    8  ( -0.000000,  0.000000,  6.419668 )     0.44626926
  WF centre and spread    9  ( -0.000000,  0.000000,  6.419668 )     0.46468297
  WF centre and spread   10  ( -0.000000, -0.000000,  6.419668 )     0.44770089
  WF centre and spread   11  (  1.545704,  0.255960,  7.489613 )     1.20689893
  WF centre and spread   12  (  1.545704,  0.256358,  7.489613 )     1.08287344
  WF centre and spread   13  (  1.545704,  0.347907,  7.489613 )     1.37975457
  WF centre and spread   14  ( -0.551188, -1.466600,  7.489607 )     1.20735488
  WF centre and spread   15  ( -0.493982, -1.506450,  7.485574 )     1.30906920
  WF centre and spread   16  ( -0.528603, -1.472724,  7.493659 )     1.15716090
  WF centre and spread   17  ( -0.994517,  1.210639,  7.489619 )     1.20735486
  WF centre and spread   18  ( -1.051723,  1.170789,  7.493652 )     1.30906916
  WF centre and spread   19  ( -1.017102,  1.204514,  7.485567 )     1.15716088
  WF centre and spread   20  ( -1.545704, -0.255960,  5.349723 )     1.20689893
  WF centre and spread   21  ( -1.545704, -0.256358,  5.349723 )     1.08287344
  WF centre and spread   22  ( -1.545704, -0.347907,  5.349723 )     1.37975457
  WF centre and spread   23  (  0.551188,  1.466600,  5.349729 )     1.20735488
  WF centre and spread   24  (  0.493982,  1.506450,  5.353762 )     1.30906920
  WF centre and spread   25  (  0.528603,  1.472724,  5.345678 )     1.15716090
  WF centre and spread   26  (  0.994517, -1.210639,  5.349718 )     1.20735486
  WF centre and spread   27  (  1.051723, -1.170789,  5.345684 )     1.30906916
  WF centre and spread   28  (  1.017102, -1.204514,  5.353769 )     1.15716088
  Sum of centres and spreads ( -0.000000,  0.000000,147.652365 )    26.57553157
 
     97    -0.438E-05     0.0026418205       26.5755315737       2.68  <-- CONV
        O_D=      0.0013131 O_OD=      0.4265679 O_TOT=     26.5755316 <-- SPRD
 Delta: O_D= -0.3407839E-06 O_OD= -0.4039473E-05 O_TOT= -0.4380257E-05 <-- DLTA
 ------------------------------------------------------------------------------
 Cycle:     98
  WF centre and spread    1  ( -0.000000,  0.000000,  0.000000 )     0.46519667
  WF centre and spread    2  ( -0.000000,  0.000000, -0.000000 )     0.44721982
  WF centre and spread    3  ( -0.000000, -0.000000,  0.000000 )     0.44626816
  WF centre and spread    4  (  0.000000,  0.000000,  0.000000 )     0.46468453
  WF centre and spread    5  ( -0.000000,  0.000000,  0.000000 )     0.44769977
  WF centre and spread    6  (  0.000000,  0.000000,  6.419668 )     0.46519667
  WF centre and spread    7  ( -0.000000, -0.000000,  6.419668 )     0.44721982
  WF centre and spread    8  ( -0.000000,  0.000000,  6.419668 )     0.44626816
  WF centre and spread    9  ( -0.000000,  0.000000,  6.419668 )     0.46468453
  WF centre and spread   10  ( -0.000000, -0.000000,  6.419668 )     0.44769977
  WF centre and spread   11  (  1.545704,  0.255960,  7.489613 )     1.20689985
  WF centre and spread   12  (  1.545704,  0.256357,  7.489613 )     1.08287275
  WF centre and spread   13  (  1.545704,  0.347907,  7.489613 )     1.37975421
  WF centre and spread   14  ( -0.551188, -1.466600,  7.489607 )     1.20735872
  WF centre and spread   15  ( -0.493979, -1.506451,  7.485574 )     1.30907588
  WF centre and spread   16  ( -0.528605, -1.472723,  7.493658 )     1.15714958
  WF centre and spread   17  ( -0.994517,  1.210639,  7.489619 )     1.20735870
  WF centre and spread   18  ( -1.051725,  1.170788,  7.493651 )     1.30907584
  WF centre and spread   19  ( -1.017099,  1.204516,  7.485567 )     1.15714956
  WF centre and spread   20  ( -1.545704, -0.255960,  5.349723 )     1.20689985
  WF centre and spread   21  ( -1.545704, -0.256357,  5.349723 )     1.08287275
  WF centre and spread   22  ( -1.545704, -0.347907,  5.349723 )     1.37975421
  WF centre and spread   23  (  0.551188,  1.466600,  5.349729 )     1.20735872
  WF centre and spread   24  (  0.493979,  1.506451,  5.353762 )     1.30907588
  WF centre and spread   25  (  0.528605,  1.472723,  5.345678 )     1.15714957
  WF centre and spread   26  (  0.994517, -1.210639,  5.349718 )     1.20735870
  WF centre and spread   27  (  1.051725, -1.170788,  5.345685 )     1.30907584
  WF centre and spread   28  (  1.017099, -1.204516,  5.353769 )     1.15714955
  Sum of centres and spreads ( -0.000000,  0.000000,147.652365 )    26.57552809
 
     98    -0.348E-05     0.0016078124       26.5755280906       2.71  <-- CONV
        O_D=      0.0013125 O_OD=      0.4265650 O_TOT=     26.5755281 <-- SPRD
 Delta: O_D= -0.5577969E-06 O_OD= -0.2925273E-05 O_TOT= -0.3483070E-05 <-- DLTA
 ------------------------------------------------------------------------------
 Cycle:     99
  WF centre and spread    1  ( -0.000000,  0.000000,  0.000000 )     0.46519880
  WF centre and spread    2  ( -0.000000,  0.000000, -0.000000 )     0.44721863
  WF centre and spread    3  ( -0.000000, -0.000000,  0.000000 )     0.44626676
  WF centre and spread    4  (  0.000000,  0.000000,  0.000000 )     0.46468668
  WF centre and spread    5  ( -0.000000,  0.000000,  0.000000 )     0.44769833
  WF centre and spread    6  (  0.000000,  0.000000,  6.419668 )     0.46519880
  WF centre and spread    7  ( -0.000000, -0.000000,  6.419668 )     0.44721863
  WF centre and spread    8  ( -0.000000,  0.000000,  6.419668 )     0.44626676
  WF centre and spread    9  ( -0.000000,  0.000000,  6.419668 )     0.46468668
  WF centre and spread   10  ( -0.000000, -0.000000,  6.419668 )     0.44769833
  WF centre and spread   11  (  1.545704,  0.255960,  7.489613 )     1.20690173
  WF centre and spread   12  (  1.545704,  0.256357,  7.489613 )     1.08287130
  WF centre and spread   13  (  1.545704,  0.347907,  7.489613 )     1.37975383
  WF centre and spread   14  ( -0.551188, -1.466600,  7.489607 )     1.20736553
  WF centre and spread   15  ( -0.493975, -1.506453,  7.485575 )     1.30908751
  WF centre and spread   16  ( -0.528609, -1.472721,  7.493658 )     1.15713017
  WF centre and spread   17  ( -0.994517,  1.210639,  7.489619 )     1.20736550
  WF centre and spread   18  ( -1.051729,  1.170786,  7.493651 )     1.30908748
  WF centre and spread   19  ( -1.017095,  1.204518,  7.485568 )     1.15713015
  WF centre and spread   20  ( -1.545704, -0.255960,  5.349723 )     1.20690173
  WF centre and spread   21  ( -1.545704, -0.256357,  5.349723 )     1.08287130
  WF centre and spread   22  ( -1.545704, -0.347907,  5.349723 )     1.37975383
  WF centre and spread   23  (  0.551188,  1.466600,  5.349729 )     1.20736553
  WF centre and spread   24  (  0.493975,  1.506453,  5.353761 )     1.30908751
  WF centre and spread   25  (  0.528609,  1.472721,  5.345678 )     1.15713017
  WF centre and spread   26  (  0.994517, -1.210639,  5.349717 )     1.20736550
  WF centre and spread   27  (  1.051729, -1.170786,  5.345685 )     1.30908748
  WF centre and spread   28  (  1.017095, -1.204518,  5.353768 )     1.15713015
  Sum of centres and spreads ( -0.000000,  0.000000,147.652365 )    26.57552481
 
     99    -0.328E-05     0.0015471193       26.5755248104       2.73  <-- CONV
        O_D=      0.0013123 O_OD=      0.4265620 O_TOT=     26.5755248 <-- SPRD
 Delta: O_D= -0.2650681E-06 O_OD= -0.3015130E-05 O_TOT= -0.3280198E-05 <-- DLTA
 ------------------------------------------------------------------------------
 Cycle:    100
  WF centre and spread    1  ( -0.000000,  0.000000,  0.000000 )     0.46520099
  WF centre and spread    2  ( -0.000000,  0.000000, -0.000000 )     0.44721758
  WF centre and spread    3  ( -0.000000, -0.000000,  0.000000 )     0.44626554
  WF centre and spread    4  (  0.000000,  0.000000,  0.000000 )     0.46468892
  WF centre and spread    5  ( -0.000000,  0.000000,  0.000000 )     0.44769706
  WF centre and spread    6  (  0.000000,  0.000000,  6.419668 )     0.46520100
  WF centre and spread    7  ( -0.000000, -0.000000,  6.419668 )     0.44721758
  WF centre and spread    8  ( -0.000000,  0.000000,  6.419668 )     0.44626555
  WF centre and spread    9  ( -0.000000,  0.000000,  6.419668 )     0.46468892
  WF centre and spread   10  ( -0.000000, -0.000000,  6.419668 )     0.44769707
  WF centre and spread   11  (  1.545704,  0.255960,  7.489613 )     1.20690444
  WF centre and spread   12  (  1.545704,  0.256357,  7.489613 )     1.08286891
  WF centre and spread   13  (  1.545704,  0.347907,  7.489613 )     1.37975349
  WF centre and spread   14  ( -0.551188, -1.466600,  7.489607 )     1.20737480
  WF centre and spread   15  ( -0.493970, -1.506455,  7.485576 )     1.30910328
  WF centre and spread   16  ( -0.528615, -1.472718,  7.493657 )     1.15710395
  WF centre and spread   17  ( -0.994517,  1.210639,  7.489619 )     1.20737477
  WF centre and spread   18  ( -1.051735,  1.170783,  7.493650 )     1.30910324
  WF centre and spread   19  ( -1.017090,  1.204520,  7.485568 )     1.15710393
  WF centre and spread   20  ( -1.545704, -0.255960,  5.349723 )     1.20690444
  WF centre and spread   21  ( -1.545704, -0.256357,  5.349723 )     1.08286891
  WF centre and spread   22  ( -1.545704, -0.347907,  5.349723 )     1.37975349
  WF centre and spread   23  (  0.551188,  1.466600,  5.349729 )     1.20737480
  WF centre and spread   24  (  0.493970,  1.506455,  5.353760 )     1.30910328
  WF centre and spread   25  (  0.528615,  1.472718,  5.345679 )     1.15710395
  WF centre and spread   26  (  0.994517, -1.210639,  5.349717 )     1.20737477
  WF centre and spread   27  (  1.051735, -1.170783,  5.345686 )     1.30910324
  WF centre and spread   28  (  1.017090, -1.204520,  5.353768 )     1.15710393
  Sum of centres and spreads ( -0.000000,  0.000000,147.652365 )    26.57552183
 
    100    -0.298E-05     0.0015020857       26.5755218271       2.76  <-- CONV
        O_D=      0.0013124 O_OD=      0.4265588 O_TOT=     26.5755218 <-- SPRD
 Delta: O_D=  0.1815579E-06 O_OD= -0.3164954E-05 O_TOT= -0.2983396E-05 <-- DLTA
 ------------------------------------------------------------------------------

 Writing checkpoint file wannier90.chk... done

 Final State
  WF centre and spread    1  ( -0.000000,  0.000000,  0.000000 )     0.46520099
  WF centre and spread    2  ( -0.000000,  0.000000, -0.000000 )     0.44721758
  WF centre and spread    3  ( -0.000000, -0.000000,  0.000000 )     0.44626554
  WF centre and spread    4  (  0.000000,  0.000000,  0.000000 )     0.46468892
  WF centre and spread    5  ( -0.000000,  0.000000,  0.000000 )     0.44769706
  WF centre and spread    6  (  0.000000,  0.000000,  6.419668 )     0.46520100
  WF centre and spread    7  ( -0.000000, -0.000000,  6.419668 )     0.44721758
  WF centre and spread    8  ( -0.000000,  0.000000,  6.419668 )     0.44626555
  WF centre and spread    9  ( -0.000000,  0.000000,  6.419668 )     0.46468892
  WF centre and spread   10  ( -0.000000, -0.000000,  6.419668 )     0.44769707
  WF centre and spread   11  (  1.545704,  0.255960,  7.489613 )     1.20690444
  WF centre and spread   12  (  1.545704,  0.256357,  7.489613 )     1.08286891
  WF centre and spread   13  (  1.545704,  0.347907,  7.489613 )     1.37975349
  WF centre and spread   14  ( -0.551188, -1.466600,  7.489607 )     1.20737480
  WF centre and spread   15  ( -0.493970, -1.506455,  7.485576 )     1.30910328
  WF centre and spread   16  ( -0.528615, -1.472718,  7.493657 )     1.15710395
  WF centre and spread   17  ( -0.994517,  1.210639,  7.489619 )     1.20737477
  WF centre and spread   18  ( -1.051735,  1.170783,  7.493650 )     1.30910324
  WF centre and spread   19  ( -1.017090,  1.204520,  7.485568 )     1.15710393
  WF centre and spread   20  ( -1.545704, -0.255960,  5.349723 )     1.20690444
  WF centre and spread   21  ( -1.545704, -0.256357,  5.349723 )     1.08286891
  WF centre and spread   22  ( -1.545704, -0.347907,  5.349723 )     1.37975349
  WF centre and spread   23  (  0.551188,  1.466600,  5.349729 )     1.20737480
  WF centre and spread   24  (  0.493970,  1.506455,  5.353760 )     1.30910328
  WF centre and spread   25  (  0.528615,  1.472718,  5.345679 )     1.15710395
  WF centre and spread   26  (  0.994517, -1.210639,  5.349717 )     1.20737477
  WF centre and spread   27  (  1.051735, -1.170783,  5.345686 )     1.30910324
  WF centre and spread   28  (  1.017090, -1.204520,  5.353768 )     1.15710393
  Sum of centres and spreads ( -0.000000,  0.000000,147.652365 )    26.57552183
 
         Spreads (Ang^2)       Omega I      =    26.147650565
        ================       Omega D      =     0.001312435
                               Omega OD     =     0.426558827
    Final Spread (Ang^2)       Omega Total  =    26.575521827
 ------------------------------------------------------------------------------
 Time for wannierise            2.430 (sec)

 Writing checkpoint file wannier90.chk... done

 Time for plotting              0.000 (sec)
 Total Execution Time          10.182 (sec)

 *===========================================================================*
 |                             TIMING INFORMATION                            |
 *===========================================================================*
 |    Tag                                                Ncalls      Time (s)|
 |---------------------------------------------------------------------------|
 |kmesh: get                                        :         1         0.298|
 |overlap: allocate                                 :         1         0.005|
 |overlap: read                                     :         1         6.664|
 |dis: main                                         :         1         0.693|
 |wann: main                                        :         1         2.430|
 |plot: main                                        :         1         0.000|
 *---------------------------------------------------------------------------*
 
 All done: wannier90 exiting
