LaNiO3                                  
           1
     1.545704   -2.677239    4.279779
     1.545704    2.677239    4.279779
    -3.091409    0.000000    4.279779
   La   Ni   O 
   2   2   6
Direct configuration=     1
   0.25000000  0.25000000  0.25000000
   0.75000000  0.75000000  0.75000000
   0.00000000  0.00000000  0.00000000
   0.50000000  0.50000000  0.50000000
   0.70478152  0.79521848  0.25000000
   0.79521848  0.25000000  0.70478152
   0.25000000  0.70478152  0.79521848
   0.29521848  0.20478152  0.75000000
   0.20478152  0.75000000  0.29521848
   0.75000000  0.29521848  0.20478152
