unknown system                          
   3.84652000000000     
     0.966807   -0.000000   -0.000000
     0.000000    0.966807   -0.000000
     0.000000    0.000000    0.966807
   Sr   V    O 
     1     1     3
Direct
  0.000000  0.000000  0.000000
  0.500000  0.500000  0.500000
  0.500000  0.500000  0.000000
  0.500000  0.000000  0.500000
  0.000000  0.500000  0.500000
 
   64   64   64
  186.19      186.17      185.97      185.19      183.28      179.65      173.81      165.47      154.59      141.39    
  126.35      110.14      93.532      77.325      62.242      48.843      37.471      28.235      21.035      15.613    
  11.629      8.7402      6.6804      5.2294      4.2141      3.5057      3.0130      2.6726      2.4410      2.2879    
  2.1924      2.1405      2.1241      2.1405      2.1924      2.2879      2.4410      2.6726      3.0130      3.5057    
  4.2141      5.2294      6.6804      8.7402      11.629      15.613      21.035      28.235      37.471      48.843    
  62.242      77.325      93.532      110.14      126.35      141.39      154.59      165.47      173.81      179.65    
  183.28      185.19      185.97      186.17      186.17      186.12      185.85      184.97      182.93      179.18    
  173.22      164.78      153.83      140.60      125.57      109.39      92.849      76.726      61.738      48.437    
  37.158      28.004      20.871      15.502      11.556      8.6944      6.6543      5.2173      4.2116      3.5100    
  3.0221      2.6852      2.4560      2.3047      2.2103      2.1591      2.1429      2.1591      2.2103      2.3047    
  2.4560      2.6852      3.0221      3.5100      4.2116      5.2173      6.6543      8.6944      11.556      15.502    
  20.871      28.004      37.158      48.437      61.738      76.726      92.849      109.39      125.57      140.60    
  153.83      164.78      173.22      179.18      182.93      184.97      185.85      186.12      185.97      185.85    
  185.39      184.21      181.81      177.69      171.39      162.68      151.55      138.24      123.22      107.17    
  90.819      74.951      60.249      47.240      36.235      27.323      20.389      15.174      11.341      8.5613    
  6.5796      5.1836      4.2066      3.5251      3.0514      2.7245      2.5026      2.3563      2.2653      2.2160    
  2.2004      2.2160      2.2653      2.3563      2.5026      2.7245      3.0514      3.5251      4.2066      5.1836    
  6.5796      8.5613      11.341      15.174      20.389      27.323      36.235      47.240      60.249      74.951    
  90.819      107.17      123.22      138.24      151.55      162.68      171.39      177.69      181.81      184.21    
  185.39      185.85      185.19      184.97      184.21      182.58      179.65      174.98      168.18      159.08    
  147.69      134.28      119.34      103.50      87.501      72.062      57.836      45.307      34.752      26.233    
  19.621      14.654      11.002      8.3534      6.4658      5.1361      4.2053      3.5563      3.1056      2.7952    
  2.5851      2.4470      2.3615      2.3154      2.3008      2.3154      2.3615      2.4470      2.5851      2.7952    
  3.1056      3.5563      4.2053      5.1361      6.4658      8.3534      11.002      14.654      19.621      26.233    
  34.752      45.307      57.836      72.062      87.501      103.50      119.34      134.28      147.69      159.08    
  168.18      174.98      179.65      182.58      184.21      184.97      183.28      182.93      181.81      179.65    
  176.10      170.77      163.40      153.86      142.21      128.76      113.98      98.493      82.994      68.167    
  54.602      42.732      32.787      24.795      18.613      13.976      10.563      8.0898      6.3275      5.0860    
  4.2171      3.6117      3.1921      2.9041      2.7100      2.5833      2.5054      2.4636      2.4504      2.4636    
  2.5054      2.5833      2.7100      2.9041      3.1921      3.6117      4.2171      5.0860      6.3275      8.0898    
  10.563      13.976      18.613      24.795      32.787      42.732      54.602      68.167      82.994      98.493    
  113.98      128.76      142.21      153.86      163.40      170.77      176.10      179.65      181.81      182.93    
  179.65      179.18      177.69      174.98      170.77      164.80      156.87      146.93      135.11      121.72    
  107.24      92.263      77.447      63.413      50.688      39.637      30.441      23.091      17.427      13.183    
  10.057      7.7939      6.1822      5.0472      4.2534      3.7014      3.3202      3.0601      2.8863      2.7740    
  2.7058      2.6695      2.6582      2.6695      2.7058      2.7740      2.8863      3.0601      3.3202      3.7014    
  4.2534      5.0472      6.1822      7.7939      10.057      13.183      17.427      23.091      30.441      39.637    
  50.688      63.413      77.447      92.263      107.24      121.72      135.11      146.93      156.87      164.80    
  170.77      174.98      177.69      179.18      173.81      173.22      171.39      168.18      163.40      156.87    
  148.49      138.29      126.43      113.27      99.268      84.996      71.051      57.989      46.263      36.170    
  27.835      21.213      16.130      12.324      9.5192      7.4917      6.0494      5.0350      4.3273      3.8372    
  3.5013      3.2747      3.1257      3.0313      2.9752      2.9460      2.9370      2.9460      2.9752      3.0313    
  3.1257      3.2747      3.5013      3.8372      4.3273      5.0350      6.0494      7.4917      9.5192      12.324    
  16.130      21.213      27.835      36.170      46.263      57.989      71.051      84.996      99.268      113.27    
  126.43      138.29      148.49      156.87      163.40      168.18      171.39      173.22      165.47      164.78    
  162.68      159.08      153.86      146.93      138.29      128.02      116.34      103.61      90.303      76.934    
  64.043      52.114      41.521      32.492      25.096      19.258      14.791      11.447      8.9853      7.2098    
  5.9498      5.0667      4.4542      4.0343      3.7510      3.5643      3.4454      3.3733      3.3324      3.3122    
  3.3062      3.3122      3.3324      3.3733      3.4454      3.5643      3.7510      4.0343      4.4542      5.0667    
  5.9498      7.2098      8.9853      11.447      14.791      19.258      25.096      32.492      41.521      52.114    
  64.043      76.934      90.303      103.61      116.34      128.02      138.29      146.93      153.86      159.08    
  162.68      164.78      154.59      153.83      151.55      147.69      142.21      135.11      126.43      116.34    
  105.09      93.036      80.634      68.362      56.691      46.027      36.665      28.766      22.351      17.317    
  13.477      10.601      8.4912      6.9756      5.9059      5.1624      4.6539      4.3131      4.0910      3.9523    
  3.8706      3.8265      3.8053      3.7966      3.7944      3.7966      3.8053      3.8265      3.8706      3.9523    
  4.0910      4.3131      4.6539      5.1624      5.9059      6.9756      8.4912      10.601      13.477      17.317    
  22.351      28.766      36.665      46.027      56.691      68.362      80.634      93.036      105.09      116.34    
  126.43      135.11      142.21      147.69      151.55      153.83      141.39      140.60      138.24      134.28    
  128.76      121.72      113.27      103.61      93.036      81.896      70.608      59.603      49.281      39.970    
  31.892      25.146      19.712      15.472      12.243      9.8302      8.0710      6.8173      5.9430      5.3472    
  4.9526      4.7017      4.5520      4.4718      4.4369      4.4286      4.4328      4.4394      4.4423      4.4394    
  4.4328      4.4286      4.4369      4.4718      4.5520      4.7017      4.9526      5.3472      5.9430      6.8173    
  8.0710      9.8302      12.243      15.472      19.712      25.146      31.892      39.970      49.281      59.603    
  70.608      81.896      93.036      103.61      113.27      121.72      128.76      134.28      138.24      140.60    
  126.35      125.57      123.22      119.34      113.98      107.24      99.268      90.303      80.634      70.608    
  60.602      50.986      42.092      34.170      27.378      21.763      17.275      13.789      11.139      9.1745    
  7.7578      6.7649      6.0909      5.6521      5.3839      5.2372      5.1745      5.1668      5.1910      5.2290    
  5.2665      5.2931      5.3027      5.2931      5.2665      5.2290      5.1910      5.1668      5.1745      5.2372    
  5.3839      5.6521      6.0909      6.7649      7.7578      9.1745      11.139      13.789      17.275      21.763    
  27.378      34.170      42.092      50.986      60.602      70.608      80.634      90.303      99.268      107.24    
  113.98      119.34      123.22      125.57      110.14      109.39      107.17      103.50      98.493      92.263    
  84.996      76.934      68.362      59.603      50.986      42.823      35.372      28.819      23.265      18.716    
  15.107      12.315      10.208      8.6690      7.5837      6.8504      6.3836      6.1148      5.9896      5.9655    
  6.0088      6.0917      6.1914      6.2892      6.3700      6.4230      6.4415      6.4230      6.3700      6.2892    
  6.1914      6.0917      6.0088      5.9655      5.9896      6.1148      6.3836      6.8504      7.5837      8.6690    
  10.208      12.315      15.107      18.716      23.265      28.819      35.372      42.823      50.986      59.603    
  68.362      76.934      84.996      92.263      98.493      103.50      107.17      109.39      93.532      92.849    
  90.819      87.501      82.994      77.447      71.051      64.043      56.691      49.281      42.092      35.372    
  29.318      24.059      19.649      16.071      13.250      11.085      9.4822      8.3443      7.5801      7.1081    
  6.8596      6.7783      6.8179      6.9406      7.1142      7.3111      7.5073      7.6826      7.8202      7.9078    
  7.9379      7.9078      7.8202      7.6826      7.5073      7.3111      7.1142      6.9406      6.8179      6.7783    
  6.8596      7.1081      7.5801      8.3443      9.4822      11.085      13.250      16.071      19.649      24.059    
  29.318      35.372      42.092      49.281      56.691      64.043      71.051      77.447      82.994      87.501    
  90.819      92.849      77.325      76.726      74.951      72.062      68.167      63.413      57.989      52.114    
  46.027      39.970      34.170      28.819      24.059      19.972      16.581      13.854      11.725      10.127    
  8.9864      8.2272      7.7776      7.5736      7.5601      7.6901      7.9231      8.2236      8.5593      8.9010    
  9.2219      9.4986      9.7113      9.8452      9.8908      9.8452      9.7113      9.4986      9.2219      8.9010    
  8.5593      8.2236      7.9231      7.6901      7.5601      7.5736      7.7776      8.2272      8.9864      10.127    
  11.725      13.854      16.581      19.972      24.059      28.819      34.170      39.970      46.027      52.114    
  57.989      63.413      68.167      72.062      74.951      76.726      62.242      61.738      60.249      57.836    
  54.602      50.688      46.263      41.521      36.665      31.892      27.378      23.265      19.649      16.581    
  14.063      12.062      10.542      9.4527      8.7380      8.3404      8.2052      8.2827      8.5283      8.9016    
  9.3657      9.8853      10.426      10.956      11.441      11.854      12.169      12.366      12.433      12.366    
  12.169      11.854      11.441      10.956      10.426      9.8853      9.3657      8.9016      8.5283      8.2827    
  8.2052      8.3404      8.7380      9.4527      10.542      12.062      14.063      16.581      19.649      23.265    
  27.378      31.892      36.665      41.521      46.263      50.688      54.602      57.836      60.249      61.738    
  48.843      48.437      47.240      45.307      42.732      39.637      36.170      32.492      28.766      25.146    
  21.763      18.716      16.071      13.854      12.062      10.685      9.6981      9.0657      8.7478      8.7027    
  8.8899      9.2710      9.8094      10.470      11.217      12.014      12.822      13.602      14.313      14.915    
  15.374      15.661      15.759      15.661      15.374      14.915      14.313      13.602      12.822      12.014    
  11.217      10.470      9.8094      9.2710      8.8899      8.7027      8.7478      9.0657      9.6981      10.685    
  12.062      13.854      16.071      18.716      21.763      25.146      28.766      32.492      36.170      39.637    
  42.732      45.307      47.240      48.437      37.471      37.158      36.235      34.752      32.787      30.441    
  27.835      25.096      22.351      19.712      17.275      15.107      13.250      11.725      10.542      9.6981    
  9.1787      8.9619      9.0215      9.3293      9.8567      10.575      11.454      12.463      13.567      14.727    
  15.896      17.023      18.053      18.929      19.598      20.018      20.161      20.018      19.598      18.929    
  18.053      17.023      15.896      14.727      13.567      12.463      11.454      10.575      9.8567      9.3293    
  9.0215      8.9619      9.1787      9.6981      10.542      11.725      13.250      15.107      17.275      19.712    
  22.351      25.096      27.835      30.441      32.787      34.752      36.235      37.158      28.235      28.004    
  27.323      26.233      24.795      23.091      21.213      19.258      17.317      15.472      13.789      12.315    
  11.085      10.127      9.4527      9.0657      8.9619      9.1313      9.5601      10.232      11.130      12.234    
  13.523      14.970      16.541      18.191      19.863      21.486      22.979      24.257      25.239      25.858    
  26.070      25.858      25.239      24.257      22.979      21.486      19.863      18.191      16.541      14.970    
  13.523      12.234      11.130      10.232      9.5601      9.1313      8.9619      9.0657      9.4527      10.127    
  11.085      12.315      13.789      15.472      17.317      19.258      21.213      23.091      24.795      26.233    
  27.323      28.004      21.035      20.871      20.389      19.621      18.613      17.427      16.130      14.791    
  13.477      12.243      11.139      10.208      9.4822      8.9864      8.7380      8.7478      9.0215      9.5601    
  10.362      11.423      12.737      14.298      16.095      18.109      20.307      22.637      25.022      27.360    
  29.532      31.405      32.853      33.769      34.083      33.769      32.853      31.405      29.532      27.360    
  25.022      22.637      20.307      18.109      16.095      14.298      12.737      11.423      10.362      9.5601    
  9.0215      8.7478      8.7380      8.9864      9.4822      10.208      11.139      12.243      13.477      14.791    
  16.130      17.427      18.613      19.621      20.389      20.871      15.613      15.502      15.174      14.654    
  13.976      13.183      12.324      11.447      10.601      9.8302      9.1745      8.6690      8.3443      8.2272    
  8.3404      8.7027      9.3293      10.232      11.423      12.911      14.708      16.826      19.271      22.035    
  25.087      28.365      31.761      35.127      38.280      41.018      43.143      44.493      44.955      44.493    
  43.143      41.018      38.280      35.127      31.761      28.365      25.087      22.035      19.271      16.826    
  14.708      12.911      11.423      10.232      9.3293      8.7027      8.3404      8.2272      8.3443      8.6690    
  9.1745      9.8302      10.601      11.447      12.324      13.183      13.976      14.654      15.174      15.502    
  11.629      11.556      11.341      11.002      10.563      10.057      9.5192      8.9853      8.4912      8.0710    
  7.7578      7.5837      7.5801      7.7776      8.2052      8.8899      9.8567      11.130      12.737      14.708    
  17.080      19.891      23.171      26.933      31.149      35.734      40.540      45.344      49.873      53.823    
  56.899      58.853      59.524      58.853      56.899      53.823      49.873      45.344      40.540      35.734    
  31.149      26.933      23.171      19.891      17.080      14.708      12.737      11.130      9.8567      8.8899    
  8.2052      7.7776      7.5801      7.5837      7.7578      8.0710      8.4912      8.9853      9.5192      10.057    
  10.563      11.002      11.341      11.556      8.7402      8.6944      8.5613      8.3534      8.0898      7.7939    
  7.4917      7.2098      6.9756      6.8173      6.7649      6.8504      7.1081      7.5736      8.2827      9.2710    
  10.575      12.234      14.298      16.826      19.891      23.568      27.928      33.004      38.772      45.117    
  51.821      58.560      64.940      70.562      75.002      77.858      78.844      77.858      75.002      70.562    
  64.940      58.560      51.821      45.117      38.772      33.004      27.928      23.568      19.891      16.826    
  14.298      12.234      10.575      9.2710      8.2827      7.5736      7.1081      6.8504      6.7649      6.8173    
  6.9756      7.2098      7.4917      7.7939      8.0898      8.3534      8.5613      8.6944      6.6804      6.6543    
  6.5796      6.4658      6.3275      6.1822      6.0494      5.9498      5.9059      5.9430      6.0909      6.3836    
  6.8596      7.5601      8.5283      9.8094      11.454      13.523      16.095      19.271      23.171      27.928    
  33.657      40.423      48.197      56.816      65.972      75.340      84.461      92.673      99.238      103.49    
  104.96      103.49      99.238      92.673      84.461      75.340      65.972      56.816      48.197      40.423    
  33.657      27.928      23.171      19.271      16.095      13.523      11.454      9.8094      8.5283      7.5601    
  6.8596      6.3836      6.0909      5.9430      5.9059      5.9498      6.0494      6.1822      6.3275      6.4658    
  6.5796      6.6543      5.2294      5.2173      5.1836      5.1361      5.0860      5.0472      5.0350      5.0667    
  5.1624      5.3472      5.6521      6.1148      6.7783      7.6901      8.9016      10.470      12.463      14.970    
  18.109      22.035      26.933      33.004      40.423      49.285      59.544      71.023      83.597      96.834    
  109.91      121.76      131.24      137.37      139.50      137.37      131.24      121.76      109.91      96.834    
  83.597      71.023      59.544      49.285      40.423      33.004      26.933      22.035      18.109      14.970    
  12.463      10.470      8.9016      7.6901      6.7783      6.1148      5.6521      5.3472      5.1624      5.0667    
  5.0350      5.0472      5.0860      5.1361      5.1836      5.2173      4.2141      4.2116      4.2066      4.2053    
  4.2171      4.2534      4.3273      4.4542      4.6539      4.9526      5.3839      5.9896      6.8179      7.9231    
  9.3657      11.217      13.567      16.541      20.307      25.087      31.149      38.772      48.197      59.544    
  72.824      88.204      105.48      123.83      141.97      158.33      171.33      179.70      182.58      179.70    
  171.33      158.33      141.97      123.83      105.48      88.204      72.824      59.544      48.197      38.772    
  31.149      25.087      20.307      16.541      13.567      11.217      9.3657      7.9231      6.8179      5.9896    
  5.3839      4.9526      4.6539      4.4542      4.3273      4.2534      4.2171      4.2053      4.2066      4.2116    
  3.5057      3.5100      3.5251      3.5563      3.6117      3.7014      3.8372      4.0343      4.3131      4.7017    
  5.2372      5.9655      6.9406      8.2236      9.8853      12.014      14.727      18.191      22.637      28.365    
  35.734      45.117      56.816      71.023      88.204      108.58      131.63      156.05      179.95      201.26    
  218.02      228.71      232.38      228.71      218.02      201.26      179.95      156.05      131.63      108.58    
  88.204      71.023      56.816      45.117      35.734      28.365      22.637      18.191      14.727      12.014    
  9.8853      8.2236      6.9406      5.9655      5.2372      4.7017      4.3131      4.0343      3.8372      3.7014    
  3.6117      3.5563      3.5251      3.5100      3.0130      3.0221      3.0514      3.1056      3.1921      3.3202    
  3.5013      3.7510      4.0910      4.5520      5.1745      6.0088      7.1142      8.5593      10.426      12.822    
  15.896      19.863      25.022      31.761      40.540      51.821      65.972      83.597      105.48      131.63    
  161.09      191.94      221.71      247.83      268.08      280.86      285.22      280.86      268.08      247.83    
  221.71      191.94      161.09      131.63      105.48      83.597      65.972      51.821      40.540      31.761    
  25.022      19.863      15.896      12.822      10.426      8.5593      7.1142      6.0088      5.1745      4.5520    
  4.0910      3.7510      3.5013      3.3202      3.1921      3.1056      3.0514      3.0221      2.6726      2.6852    
  2.7245      2.7952      2.9041      3.0601      3.2747      3.5643      3.9523      4.4718      5.1668      6.0917    
  7.3111      8.9010      10.956      13.602      17.023      21.486      27.360      35.127      45.344      58.560    
  75.340      96.834      123.83      156.05      191.94      228.96      264.04      294.24      317.27      331.59    
  336.45      331.59      317.27      294.24      264.04      228.96      191.94      156.05      123.83      96.834    
  75.340      58.560      45.344      35.127      27.360      21.486      17.023      13.602      10.956      8.9010    
  7.3111      6.0917      5.1668      4.4718      3.9523      3.5643      3.2747      3.0601      2.9041      2.7952    
  2.7245      2.6852      2.4410      2.4560      2.5026      2.5851      2.7100      2.8863      3.1257      3.4454    
  3.8706      4.4369      5.1910      6.1914      7.5073      9.2219      11.441      14.313      18.053      22.979    
  29.532      38.280      49.873      64.940      84.461      109.91      141.97      179.95      221.71      264.04    
  303.36      336.53      361.32      376.51      381.61      376.51      361.32      336.53      303.36      264.04    
  221.71      179.95      141.97      109.91      84.461      64.940      49.873      38.280      29.532      22.979    
  18.053      14.313      11.441      9.2219      7.5073      6.1914      5.1910      4.4369      3.8706      3.4454    
  3.1257      2.8863      2.7100      2.5851      2.5026      2.4560      2.2879      2.3047      2.3563      2.4470    
  2.5833      2.7740      3.0313      3.3733      3.8265      4.4286      5.2290      6.2892      7.6826      9.4986    
  11.854      14.915      18.929      24.257      31.405      41.018      53.823      70.562      92.673      121.76    
  158.33      201.26      247.83      294.24      336.53      371.46      397.03      412.43      417.55      412.43    
  397.03      371.46      336.53      294.24      247.83      201.26      158.33      121.76      92.673      70.562    
  53.823      41.018      31.405      24.257      18.929      14.915      11.854      9.4986      7.6826      6.2892    
  5.2290      4.4286      3.8265      3.3733      3.0313      2.7740      2.5833      2.4470      2.3563      2.3047    
  2.1924      2.2103      2.2653      2.3615      2.5054      2.7058      2.9752      3.3324      3.8053      4.4328    
  5.2665      6.3700      7.8202      9.7113      12.169      15.374      19.598      25.239      32.853      43.143    
  56.899      75.002      99.238      131.24      171.33      218.02      268.08      317.27      361.32      397.03    
  422.68      437.87      442.87      437.87      422.68      397.03      361.32      317.27      268.08      218.02    
  171.33      131.24      99.238      75.002      56.899      43.143      32.853      25.239      19.598      15.374    
  12.169      9.7113      7.8202      6.3700      5.2665      4.4328      3.8053      3.3324      2.9752      2.7058    
  2.5054      2.3615      2.2653      2.2103      2.1405      2.1591      2.2160      2.3154      2.4636      2.6695    
  2.9460      3.3122      3.7966      4.4394      5.2931      6.4230      7.9078      9.8452      12.366      15.661    
  20.018      25.858      33.769      44.493      58.853      77.858      103.49      137.37      179.70      228.71    
  280.86      331.59      376.51      412.43      437.87      452.76      457.62      452.76      437.87      412.43    
  376.51      331.59      280.86      228.71      179.70      137.37      103.49      77.858      58.853      44.493    
  33.769      25.858      20.018      15.661      12.366      9.8452      7.9078      6.4230      5.2931      4.4394    
  3.7966      3.3122      2.9460      2.6695      2.4636      2.3154      2.2160      2.1591      2.1241      2.1429    
  2.2004      2.3008      2.4504      2.6582      2.9370      3.3062      3.7944      4.4423      5.3027      6.4415    
  7.9379      9.8908      12.433      15.759      20.161      26.070      34.083      44.955      59.524      78.844    
  104.96      139.50      182.58      232.38      285.22      336.45      381.61      417.55      442.87      457.62    
  462.43      457.62      442.87      417.55      381.61      336.45      285.22      232.38      182.58      139.50    
  104.96      78.844      59.524      44.955      34.083      26.070      20.161      15.759      12.433      9.8908    
  7.9379      6.4415      5.3027      4.4423      3.7944      3.3062      2.9370      2.6582      2.4504      2.3008    
  2.2004      2.1429      2.1405      2.1591      2.2160      2.3154      2.4636      2.6695      2.9460      3.3122    
  3.7966      4.4394      5.2931      6.4230      7.9078      9.8452      12.366      15.661      20.018      25.858    
  33.769      44.493      58.853      77.858      103.49      137.37      179.70      228.71      280.86      331.59    
  376.51      412.43      437.87      452.76      457.62      452.76      437.87      412.43      376.51      331.59    
  280.86      228.71      179.70      137.37      103.49      77.858      58.853      44.493      33.769      25.858    
  20.018      15.661      12.366      9.8452      7.9078      6.4230      5.2931      4.4394      3.7966      3.3122    
  2.9460      2.6695      2.4636      2.3154      2.2160      2.1591      2.1924      2.2103      2.2653      2.3615    
  2.5054      2.7058      2.9752      3.3324      3.8053      4.4328      5.2665      6.3700      7.8202      9.7113    
  12.169      15.374      19.598      25.239      32.853      43.143      56.899      75.002      99.238      131.24    
  171.33      218.02      268.08      317.27      361.32      397.03      422.68      437.87      442.87      437.87    
  422.68      397.03      361.32      317.27      268.08      218.02      171.33      131.24      99.238      75.002    
  56.899      43.143      32.853      25.239      19.598      15.374      12.169      9.7113      7.8202      6.3700    
  5.2665      4.4328      3.8053      3.3324      2.9752      2.7058      2.5054      2.3615      2.2653      2.2103    
  2.2879      2.3047      2.3563      2.4470      2.5833      2.7740      3.0313      3.3733      3.8265      4.4286    
  5.2290      6.2892      7.6826      9.4986      11.854      14.915      18.929      24.257      31.405      41.018    
  53.823      70.562      92.673      121.76      158.33      201.26      247.83      294.24      336.53      371.46    
  397.03      412.43      417.55      412.43      397.03      371.46      336.53      294.24      247.83      201.26    
  158.33      121.76      92.673      70.562      53.823      41.018      31.405      24.257      18.929      14.915    
  11.854      9.4986      7.6826      6.2892      5.2290      4.4286      3.8265      3.3733      3.0313      2.7740    
  2.5833      2.4470      2.3563      2.3047      2.4410      2.4560      2.5026      2.5851      2.7100      2.8863    
  3.1257      3.4454      3.8706      4.4369      5.1910      6.1914      7.5073      9.2219      11.441      14.313    
  18.053      22.979      29.532      38.280      49.873      64.940      84.461      109.91      141.97      179.95    
  221.71      264.04      303.36      336.53      361.32      376.51      381.61      376.51      361.32      336.53    
  303.36      264.04      221.71      179.95      141.97      109.91      84.461      64.940      49.873      38.280    
  29.532      22.979      18.053      14.313      11.441      9.2219      7.5073      6.1914      5.1910      4.4369    
  3.8706      3.4454      3.1257      2.8863      2.7100      2.5851      2.5026      2.4560      2.6726      2.6852    
  2.7245      2.7952      2.9041      3.0601      3.2747      3.5643      3.9523      4.4718      5.1668      6.0917    
  7.3111      8.9010      10.956      13.602      17.023      21.486      27.360      35.127      45.344      58.560    
  75.340      96.834      123.83      156.05      191.94      228.96      264.04      294.24      317.27      331.59    
  336.45      331.59      317.27      294.24      264.04      228.96      191.94      156.05      123.83      96.834    
  75.340      58.560      45.344      35.127      27.360      21.486      17.023      13.602      10.956      8.9010    
  7.3111      6.0917      5.1668      4.4718      3.9523      3.5643      3.2747      3.0601      2.9041      2.7952    
  2.7245      2.6852      3.0130      3.0221      3.0514      3.1056      3.1921      3.3202      3.5013      3.7510    