   5   5   1   0
  0.1138240E+02  0.3846520E-09  0.3846520E-09  0.3846520E-09  0.5000000E-15
  1.000000000000000E-004
  CAR 
 unknown system                          
     12.87840444    -30.54925152  301      5.73371621      1.00000000
    -30.549  0.0000E+00  0.0000E+00
    -30.404  0.0000E+00  0.0000E+00
    -30.260  0.0000E+00  0.0000E+00
    -30.115  0.0000E+00  0.0000E+00
    -29.970  0.0000E+00  0.0000E+00
    -29.825  0.0000E+00  0.0000E+00
    -29.681  0.0000E+00  0.0000E+00
    -29.536  0.0000E+00  0.0000E+00
    -29.391  0.0000E+00  0.0000E+00
    -29.246  0.0000E+00  0.0000E+00
    -29.102 -0.4688E-50 -0.6787E-51
    -28.957 -0.2347E-27 -0.3397E-28
    -28.812 -0.5538E-12 -0.8017E-13
    -28.667 -0.9629E-04 -0.1394E-04
    -28.523  0.6255E-01  0.9041E-02
    -28.378  0.7584E-01  0.2002E-01
    -28.233 -0.1370E-03  0.2000E-01
    -28.088 -0.5416E-12  0.2000E-01
    -27.944  0.0000E+00  0.2000E-01
    -27.799  0.0000E+00  0.2000E-01
    -27.654  0.0000E+00  0.2000E-01
    -27.509  0.0000E+00  0.2000E-01
    -27.365  0.0000E+00  0.2000E-01
    -27.220  0.0000E+00  0.2000E-01
    -27.075  0.0000E+00  0.2000E-01
    -26.930  0.0000E+00  0.2000E-01
    -26.786  0.0000E+00  0.2000E-01
    -26.641  0.0000E+00  0.2000E-01
    -26.496  0.0000E+00  0.2000E-01
    -26.351  0.0000E+00  0.2000E-01
    -26.206  0.0000E+00  0.2000E-01
    -26.062  0.0000E+00  0.2000E-01
    -25.917  0.0000E+00  0.2000E-01
    -25.772  0.0000E+00  0.2000E-01
    -25.627  0.0000E+00  0.2000E-01
    -25.483  0.0000E+00  0.2000E-01
    -25.338  0.0000E+00  0.2000E-01
    -25.193  0.0000E+00  0.2000E-01
    -25.048  0.0000E+00  0.2000E-01
    -24.904  0.0000E+00  0.2000E-01
    -24.759  0.0000E+00  0.2000E-01
    -24.614  0.0000E+00  0.2000E-01
    -24.469  0.0000E+00  0.2000E-01
    -24.325  0.0000E+00  0.2000E-01
    -24.180  0.0000E+00  0.2000E-01
    -24.035  0.0000E+00  0.2000E-01
    -23.890  0.0000E+00  0.2000E-01
    -23.746  0.0000E+00  0.2000E-01
    -23.601  0.0000E+00  0.2000E-01
    -23.456  0.0000E+00  0.2000E-01
    -23.311  0.0000E+00  0.2000E-01
    -23.167  0.0000E+00  0.2000E-01
    -23.022  0.0000E+00  0.2000E-01
    -22.877  0.0000E+00  0.2000E-01
    -22.732  0.0000E+00  0.2000E-01
    -22.588  0.0000E+00  0.2000E-01
    -22.443  0.0000E+00  0.2000E-01
    -22.298  0.0000E+00  0.2000E-01
    -22.153  0.0000E+00  0.2000E-01
    -22.008  0.0000E+00  0.2000E-01
    -21.864  0.0000E+00  0.2000E-01
    -21.719  0.0000E+00  0.2000E-01
    -21.574  0.0000E+00  0.2000E-01
    -21.429  0.0000E+00  0.2000E-01
    -21.285  0.0000E+00  0.2000E-01
    -21.140  0.0000E+00  0.2000E-01
    -20.995  0.0000E+00  0.2000E-01
    -20.850  0.0000E+00  0.2000E-01
    -20.706  0.0000E+00  0.2000E-01
    -20.561  0.0000E+00  0.2000E-01
    -20.416  0.0000E+00  0.2000E-01
    -20.271  0.0000E+00  0.2000E-01
    -20.127  0.0000E+00  0.2000E-01
    -19.982  0.0000E+00  0.2000E-01
    -19.837  0.0000E+00  0.2000E-01
    -19.692  0.0000E+00  0.2000E-01
    -19.548  0.0000E+00  0.2000E-01
    -19.403  0.0000E+00  0.2000E-01
    -19.258  0.0000E+00  0.2000E-01
    -19.113  0.0000E+00  0.2000E-01
    -18.969  0.0000E+00  0.2000E-01
    -18.824  0.0000E+00  0.2000E-01
    -18.679  0.0000E+00  0.2000E-01
    -18.534  0.0000E+00  0.2000E-01
    -18.390  0.0000E+00  0.2000E-01
    -18.245  0.0000E+00  0.2000E-01
    -18.100  0.0000E+00  0.2000E-01
    -17.955  0.0000E+00  0.2000E-01
    -17.810  0.0000E+00  0.2000E-01
    -17.666  0.0000E+00  0.2000E-01
    -17.521  0.0000E+00  0.2000E-01
    -17.376  0.0000E+00  0.2000E-01
    -17.231  0.0000E+00  0.2000E-01
    -17.087  0.0000E+00  0.2000E-01
    -16.942  0.0000E+00  0.2000E-01
    -16.797  0.0000E+00  0.2000E-01
    -16.652  0.0000E+00  0.2000E-01
    -16.508  0.0000E+00  0.2000E-01
    -16.363  0.0000E+00  0.2000E-01
    -16.218  0.0000E+00  0.2000E-01
    -16.073  0.0000E+00  0.2000E-01
    -15.929  0.0000E+00  0.2000E-01
    -15.784  0.0000E+00  0.2000E-01
    -15.639  0.0000E+00  0.2000E-01
    -15.494  0.0000E+00  0.2000E-01
    -15.350  0.0000E+00  0.2000E-01
    -15.205  0.0000E+00  0.2000E-01
    -15.060  0.0000E+00  0.2000E-01
    -14.915  0.0000E+00  0.2000E-01
    -14.771 -0.3328E-30  0.2000E-01
    -14.626 -0.1256E-13  0.2000E-01
    -14.481 -0.1539E-04  0.2000E-01
    -14.336  0.5862E-02  0.2085E-01
    -14.192  0.6085E-02  0.2173E-01
    -14.047  0.1798E-01  0.2433E-01
    -13.902  0.4332E-01  0.3060E-01
    -13.757  0.1785E-01  0.3318E-01
    -13.612  0.2575E-01  0.3691E-01
    -13.468 -0.2558E-03  0.3688E-01
    -13.323 -0.8343E-04  0.3686E-01
    -13.178  0.1496E-01  0.3903E-01
    -13.033  0.1102E-01  0.4062E-01
    -12.889  0.1163E+00  0.5746E-01
    -12.744  0.9430E-01  0.7111E-01
    -12.599  0.5843E-01  0.7957E-01
    -12.454  0.2997E-02  0.8000E-01
    -12.310 -0.1318E-05  0.8000E-01
    -12.165  0.0000E+00  0.8000E-01
    -12.020  0.0000E+00  0.8000E-01
    -11.875  0.0000E+00  0.8000E-01
    -11.731  0.0000E+00  0.8000E-01
    -11.586 -0.2922E-40  0.8000E-01
    -11.441 -0.2672E-20  0.8000E-01
    -11.296 -0.9565E-08  0.8000E-01
    -11.152  0.1298E-03  0.8002E-01
    -11.007  0.6353E-02  0.8094E-01
    -10.862  0.2279E-01  0.8424E-01
    -10.717  0.1734E-01  0.8675E-01
    -10.573  0.1537E+00  0.1090E+00
    -10.428  0.3450E-01  0.1140E+00
    -10.283  0.9667E-01  0.1280E+00
    -10.138  0.5728E-01  0.1363E+00
     -9.993  0.1961E-01  0.1391E+00
     -9.849  0.6180E-02  0.1400E+00
     -9.704 -0.2464E-04  0.1400E+00
     -9.559  0.0000E+00  0.1400E+00
     -9.414  0.0000E+00  0.1400E+00
     -9.270  0.0000E+00  0.1400E+00
     -9.125  0.0000E+00  0.1400E+00
     -8.980  0.0000E+00  0.1400E+00
     -8.835  0.0000E+00  0.1400E+00
     -8.691  0.0000E+00  0.1400E+00
     -8.546  0.0000E+00  0.1400E+00
     -8.401  0.0000E+00  0.1400E+00
     -8.256  0.0000E+00  0.1400E+00
     -8.112  0.0000E+00  0.1400E+00
     -7.967  0.0000E+00  0.1400E+00
     -7.822  0.0000E+00  0.1400E+00
     -7.677  0.0000E+00  0.1400E+00
     -7.533  0.0000E+00  0.1400E+00
     -7.388  0.0000E+00  0.1400E+00
     -7.243  0.0000E+00  0.1400E+00
     -7.098  0.0000E+00  0.1400E+00
     -6.954  0.0000E+00  0.1400E+00
     -6.809  0.0000E+00  0.1400E+00
     -6.664  0.0000E+00  0.1400E+00
     -6.519  0.0000E+00  0.1400E+00
     -6.375  0.0000E+00  0.1400E+00
     -6.230  0.0000E+00  0.1400E+00
     -6.085  0.0000E+00  0.1400E+00
     -5.940  0.0000E+00  0.1400E+00
     -5.795  0.0000E+00  0.1400E+00
     -5.651  0.0000E+00  0.1400E+00
     -5.506  0.0000E+00  0.1400E+00
     -5.361  0.0000E+00  0.1400E+00
     -5.216  0.0000E+00  0.1400E+00
     -5.072  0.0000E+00  0.1400E+00
     -4.927  0.0000E+00  0.1400E+00
     -4.782  0.0000E+00  0.1400E+00
     -4.637  0.0000E+00  0.1400E+00
     -4.493  0.0000E+00  0.1400E+00
     -4.348  0.0000E+00  0.1400E+00
     -4.203  0.0000E+00  0.1400E+00
     -4.058  0.0000E+00  0.1400E+00
     -3.914  0.0000E+00  0.1400E+00
     -3.769  0.0000E+00  0.1400E+00
     -3.624  0.0000E+00  0.1400E+00
     -3.479  0.0000E+00  0.1400E+00
     -3.335  0.0000E+00  0.1400E+00
     -3.190  0.0000E+00  0.1400E+00
     -3.045  0.0000E+00  0.1400E+00
     -2.900  0.0000E+00  0.1400E+00
     -2.756  0.0000E+00  0.1400E+00
     -2.611  0.0000E+00  0.1400E+00
     -2.466  0.0000E+00  0.1400E+00
     -2.321 -0.1057E-46  0.1400E+00
     -2.177 -0.5881E-25  0.1400E+00
     -2.032 -0.1369E-10  0.1400E+00
     -1.887 -0.6278E-04  0.1400E+00
     -1.742  0.2062E-02  0.1403E+00
     -1.597  0.2498E-01  0.1439E+00
     -1.453  0.9125E-02  0.1452E+00
     -1.308  0.5052E-01  0.1525E+00
     -1.163  0.2079E-01  0.1555E+00
     -1.018  0.3371E-01  0.1604E+00
     -0.874  0.3577E-01  0.1656E+00
     -0.729  0.4122E-01  0.1716E+00
     -0.584 -0.6001E-03  0.1715E+00
     -0.439  0.5669E-01  0.1797E+00
     -0.295  0.6774E-01  0.1895E+00
     -0.150  0.9071E-01  0.2026E+00
     -0.005  0.6958E-02  0.2036E+00
      0.140  0.2358E-01  0.2071E+00
      0.284  0.1453E+00  0.2281E+00
      0.429  0.2523E-01  0.2317E+00
      0.574  0.4722E-01  0.2386E+00
      0.719 -0.9454E-03  0.2384E+00
      0.863  0.1322E-01  0.2403E+00
      1.008  0.3157E-01  0.2449E+00
      1.153  0.5405E-03  0.2450E+00
      1.298  0.6348E-02  0.2459E+00
      1.442  0.2462E-01  0.2495E+00
      1.587  0.3349E-01  0.2543E+00
      1.732  0.3946E-01  0.2600E+00
      1.877  0.1346E-01  0.2620E+00
      2.021  0.6409E-01  0.2713E+00
      2.166  0.2523E-01  0.2749E+00
      2.311  0.3360E-01  0.2798E+00
      2.456  0.3014E-02  0.2802E+00
      2.601  0.5665E-01  0.2884E+00
      2.745  0.5511E-01  0.2964E+00
      2.890  0.9913E-01  0.3107E+00
      3.035  0.3177E-01  0.3153E+00
      3.180  0.1130E-02  0.3155E+00
      3.324  0.5109E-02  0.3162E+00
      3.469  0.7040E-02  0.3173E+00
      3.614  0.1913E-01  0.3200E+00
      3.759 -0.2579E-03  0.3200E+00
      3.903 -0.2691E-09  0.3200E+00
      4.048 -0.2867E-36  0.3200E+00
      4.193 -0.1392E-17  0.3200E+00
      4.338 -0.2469E-06  0.3200E+00
      4.482  0.1595E-02  0.3202E+00
      4.627  0.2048E-01  0.3232E+00
      4.772  0.3833E-02  0.3238E+00
      4.917 -0.2952E-05  0.3237E+00
      5.061  0.0000E+00  0.3237E+00
      5.206 -0.3070E-37  0.3237E+00
      5.351 -0.4833E-18  0.3237E+00
      5.496 -0.2866E-06  0.3237E+00
      5.640  0.3577E-02  0.3243E+00
      5.785  0.7476E-01  0.3351E+00
      5.930  0.2528E-01  0.3387E+00
      6.075  0.2636E-01  0.3426E+00
      6.219  0.5070E-01  0.3499E+00
      6.364  0.2672E-01  0.3538E+00
      6.509 -0.8040E-03  0.3537E+00
      6.654  0.6352E-01  0.3629E+00
      6.799  0.6278E-01  0.3719E+00
      6.943  0.3807E-01  0.3774E+00
      7.088  0.2905E-01  0.3817E+00
      7.233  0.8198E-02  0.3828E+00
      7.378  0.1963E-02  0.3831E+00
      7.522 -0.2919E-05  0.3831E+00
      7.667  0.1100E-01  0.3847E+00
      7.812  0.2910E-01  0.3889E+00
      7.957  0.1169E-01  0.3906E+00
      8.101  0.6034E-02  0.3915E+00
      8.246  0.4588E-03  0.3916E+00
      8.391 -0.2532E-07  0.3916E+00
      8.536  0.0000E+00  0.3916E+00
      8.680  0.0000E+00  0.3916E+00
      8.825 -0.4139E-41  0.3916E+00
      8.970 -0.1058E-20  0.3916E+00
      9.115 -0.1082E-07  0.3916E+00
      9.259 -0.8517E-03  0.3914E+00
      9.404  0.4487E-01  0.3979E+00
      9.549 -0.8395E-03  0.3978E+00
      9.694 -0.7947E-04  0.3978E+00
      9.838  0.1295E-01  0.3997E+00
      9.983  0.7787E-04  0.3997E+00
     10.128 -0.1317E-07  0.3997E+00
     10.273  0.0000E+00  0.3997E+00
     10.418 -0.3862E-43  0.3997E+00
     10.562 -0.1916E-22  0.3997E+00
     10.707 -0.3837E-09  0.3997E+00
     10.852 -0.6427E-04  0.3997E+00
     10.997  0.2251E-02  0.4000E+00
     11.141 -0.2775E-04  0.4000E+00
     11.286 -0.4935E-12  0.4000E+00
     11.431  0.0000E+00  0.4000E+00
     11.576  0.0000E+00  0.4000E+00
     11.720  0.0000E+00  0.4000E+00
     11.865  0.0000E+00  0.4000E+00
     12.010  0.0000E+00  0.4000E+00
     12.155  0.0000E+00  0.4000E+00
     12.299  0.0000E+00  0.4000E+00
     12.444  0.0000E+00  0.4000E+00
     12.589  0.0000E+00  0.4000E+00
     12.734  0.0000E+00  0.4000E+00
     12.878  0.0000E+00  0.4000E+00
     12.87840444    -30.54925152  301      5.73371621      1.00000000
    -30.549  0.0000E+00  0.0000E+00  0.0000E+00  0.0000E+00  0.0000E+00  0.0000E+00  0.0000E+00  0.0000E+00  0.0000E+00
    -30.404  0.0000E+00  0.0000E+00  0.0000E+00  0.0000E+00  0.0000E+00  0.0000E+00  0.0000E+00  0.0000E+00  0.0000E+00
    -30.260  0.0000E+00  0.0000E+00  0.0000E+00  0.0000E+00  0.0000E+00  0.0000E+00  0.0000E+00  0.0000E+00  0.0000E+00
    -30.115  0.0000E+00  0.0000E+00  0.0000E+00  0.0000E+00  0.0000E+00  0.0000E+00  0.0000E+00  0.0000E+00  0.0000E+00
    -29.970  0.0000E+00  0.0000E+00  0.0000E+00  0.0000E+00  0.0000E+00  0.0000E+00  0.0000E+00  0.0000E+00  0.0000E+00
    -29.825  0.0000E+00  0.0000E+00  0.0000E+00  0.0000E+00  0.0000E+00  0.0000E+00  0.0000E+00  0.0000E+00  0.0000E+00
    -29.681  0.0000E+00  0.0000E+00  0.0000E+00  0.0000E+00  0.0000E+00  0.0000E+00  0.0000E+00  0.0000E+00  0.0000E+00
    -29.536  0.0000E+00  0.0000E+00  0.0000E+00  0.0000E+00  0.0000E+00  0.0000E+00  0.0000E+00  0.0000E+00  0.0000E+00
    -29.391  0.0000E+00  0.0000E+00  0.0000E+00  0.0000E+00  0.0000E+00  0.0000E+00  0.0000E+00  0.0000E+00  0.0000E+00
    -29.246  0.0000E+00  0.0000E+00  0.0000E+00  0.0000E+00  0.0000E+00  0.0000E+00  0.0000E+00  0.0000E+00  0.0000E+00
    -29.102 -0.4540E-48 -0.6643E-70 -0.1012E-70 -0.3016E-70 -0.2470E-65 -0.1137E-65 -0.9236E-68 -0.2699E-65 -0.1868E-67
    -28.957 -0.2272E-25 -0.4648E-35 -0.8206E-38 -0.1091E-32 -0.1410E-37 -0.1463E-40 -0.7526E-34 -0.1468E-40 -0.2217E-33
    -28.812 -0.5364E-10 -0.9657E-18 -0.1265E-19 -0.2639E-16 -0.2882E-20 -0.2221E-22 -0.2060E-17 -0.2199E-22 -0.5321E-17
    -28.667 -0.9345E-02 -0.8345E-08 -0.8259E-09 -0.2620E-07 -0.2156E-10 -0.1331E-11 -0.4381E-08 -0.1237E-11 -0.5392E-08
    -28.523  0.6085E+01  0.1493E-04  0.4248E-05  0.1528E-04  0.2668E-07  0.5855E-08  0.6454E-05  0.4732E-08  0.4149E-05
    -28.378  0.7396E+01  0.1754E-04  0.1353E-04  0.6409E-05  0.1424E-07  0.1091E-07  0.9127E-05  0.5904E-08  0.4011E-05
    -28.233 -0.1339E-01 -0.1395E-07 -0.2811E-07 -0.1762E-08 -0.3534E-11 -0.1005E-10 -0.1277E-07 -0.2489E-11 -0.3523E-08
    -28.088 -0.5297E-10 -0.4071E-27 -0.3798E-16 -0.1571E-27 -0.3811E-25 -0.2011E-25 -0.1421E-16 -0.3953E-25 -0.6935E-38
    -27.944  0.0000E+00  0.0000E+00  0.0000E+00  0.0000E+00  0.0000E+00  0.0000E+00  0.0000E+00  0.0000E+00  0.0000E+00
    -27.799  0.0000E+00  0.0000E+00  0.0000E+00  0.0000E+00  0.0000E+00  0.0000E+00  0.0000E+00  0.0000E+00  0.0000E+00
    -27.654  0.0000E+00  0.0000E+00  0.0000E+00  0.0000E+00  0.0000E+00  0.0000E+00  0.0000E+00  0.0000E+00  0.0000E+00
    -27.509  0.0000E+00  0.0000E+00  0.0000E+00  0.0000E+00  0.0000E+00  0.0000E+00  0.0000E+00  0.0000E+00  0.0000E+00
    -27.365  0.0000E+00  0.0000E+00  0.0000E+00  0.0000E+00  0.0000E+00  0.0000E+00  0.0000E+00  0.0000E+00  0.0000E+00
    -27.220  0.0000E+00  0.0000E+00  0.0000E+00  0.0000E+00  0.0000E+00  0.0000E+00  0.0000E+00  0.0000E+00  0.0000E+00
    -27.075  0.0000E+00  0.0000E+00  0.0000E+00  0.0000E+00  0.0000E+00  0.0000E+00  0.0000E+00  0.0000E+00  0.0000E+00
    -26.930  0.0000E+00  0.0000E+00  0.0000E+00  0.0000E+00  0.0000E+00  0.0000E+00  0.0000E+00  0.0000E+00  0.0000E+00
    -26.786  0.0000E+00  0.0000E+00  0.0000E+00  0.0000E+00  0.0000E+00  0.0000E+00  0.0000E+00  0.0000E+00  0.0000E+00
    -26.641  0.0000E+00  0.0000E+00  0.0000E+00  0.0000E+00  0.0000E+00  0.0000E+00  0.0000E+00  0.0000E+00  0.0000E+00
    -26.496  0.0000E+00  0.0000E+00  0.0000E+00  0.0000E+00  0.0000E+00  0.0000E+00  0.0000E+00  0.0000E+00  0.0000E+00
    -26.351  0.0000E+00  0.0000E+00  0.0000E+00  0.0000E+00  0.0000E+00  0.0000E+00  0.0000E+00  0.0000E+00  0.0000E+00
    -26.206  0.0000E+00  0.0000E+00  0.0000E+00  0.0000E+00  0.0000E+00  0.0000E+00  0.0000E+00  0.0000E+00  0.0000E+00
    -26.062  0.0000E+00  0.0000E+00  0.0000E+00  0.0000E+00  0.0000E+00  0.0000E+00  0.0000E+00  0.0000E+00  0.0000E+00
    -25.917  0.0000E+00  0.0000E+00  0.0000E+00  0.0000E+00  0.0000E+00  0.0000E+00  0.0000E+00  0.0000E+00  0.0000E+00
    -25.772  0.0000E+00  0.0000E+00  0.0000E+00  0.0000E+00  0.0000E+00  0.0000E+00  0.0000E+00  0.0000E+00  0.0000E+00
    -25.627  0.0000E+00  0.0000E+00  0.0000E+00  0.0000E+00  0.0000E+00  0.0000E+00  0.0000E+00  0.0000E+00  0.0000E+00
    -25.483  0.0000E+00  0.0000E+00  0.0000E+00  0.0000E+00  0.0000E+00  0.0000E+00  0.0000E+00  0.0000E+00  0.0000E+00
    -25.338  0.0000E+00  0.0000E+00  0.0000E+00  0.0000E+00  0.0000E+00  0.0000E+00  0.0000E+00  0.0000E+00  0.0000E+00
    -25.193  0.0000E+00  0.0000E+00  0.0000E+00  0.0000E+00  0.0000E+00  0.0000E+00  0.0000E+00  0.0000E+00  0.0000E+00
    -25.048  0.0000E+00  0.0000E+00  0.0000E+00  0.0000E+00  0.0000E+00  0.0000E+00  0.0000E+00  0.0000E+00  0.0000E+00
    -24.904  0.0000E+00  0.0000E+00  0.0000E+00  0.0000E+00  0.0000E+00  0.0000E+00  0.0000E+00  0.0000E+00  0.0000E+00
    -24.759  0.0000E+00  0.0000E+00  0.0000E+00  0.0000E+00  0.0000E+00  0.0000E+00  0.0000E+00  0.0000E+00  0.0000E+00
    -24.614  0.0000E+00  0.0000E+00  0.0000E+00  0.0000E+00  0.0000E+00  0.0000E+00  0.0000E+00  0.0000E+00  0.0000E+00
    -24.469  0.0000E+00  0.0000E+00  0.0000E+00  0.0000E+00  0.0000E+00  0.0000E+00  0.0000E+00  0.0000E+00  0.0000E+00
    -24.325  0.0000E+00  0.0000E+00  0.0000E+00  0.0000E+00  0.0000E+00  0.0000E+00  0.0000E+00  0.0000E+00  0.0000E+00
    -24.180  0.0000E+00  0.0000E+00  0.0000E+00  0.0000E+00  0.0000E+00  0.0000E+00  0.0000E+00  0.0000E+00  0.0000E+00
    -24.035  0.0000E+00  0.0000E+00  0.0000E+00  0.0000E+00  0.0000E+00  0.0000E+00  0.0000E+00  0.0000E+00  0.0000E+00
    -23.890  0.0000E+00  0.0000E+00  0.0000E+00  0.0000E+00  0.0000E+00  0.0000E+00  0.0000E+00  0.0000E+00  0.0000E+00
    -23.746  0.0000E+00  0.0000E+00  0.0000E+00  0.0000E+00  0.0000E+00  0.0000E+00  0.0000E+00  0.0000E+00  0.0000E+00
    -23.601  0.0000E+00  0.0000E+00  0.0000E+00  0.0000E+00  0.0000E+00  0.0000E+00  0.0000E+00  0.0000E+00  0.0000E+00
    -23.456  0.0000E+00  0.0000E+00  0.0000E+00  0.0000E+00  0.0000E+00  0.0000E+00  0.0000E+00  0.0000E+00  0.0000E+00
    -23.311  0.0000E+00  0.0000E+00  0.0000E+00  0.0000E+00  0.0000E+00  0.0000E+00  0.0000E+00  0.0000E+00  0.0000E+00
    -23.167  0.0000E+00  0.0000E+00  0.0000E+00  0.0000E+00  0.0000E+00  0.0000E+00  0.0000E+00  0.0000E+00  0.0000E+00
    -23.022  0.0000E+00  0.0000E+00  0.0000E+00  0.0000E+00  0.0000E+00  0.0000E+00  0.0000E+00  0.0000E+00  0.0000E+00
    -22.877  0.0000E+00  0.0000E+00  0.0000E+00  0.0000E+00  0.0000E+00  0.0000E+00  0.0000E+00  0.0000E+00  0.0000E+00
    -22.732  0.0000E+00  0.0000E+00  0.0000E+00  0.0000E+00  0.0000E+00  0.0000E+00  0.0000E+00  0.0000E+00  0.0000E+00
    -22.588  0.0000E+00  0.0000E+00  0.0000E+00  0.0000E+00  0.0000E+00  0.0000E+00  0.0000E+00  0.0000E+00  0.0000E+00
    -22.443  0.0000E+00  0.0000E+00  0.0000E+00  0.0000E+00  0.0000E+00  0.0000E+00  0.0000E+00  0.0000E+00  0.0000E+00
    -22.298  0.0000E+00  0.0000E+00  0.0000E+00  0.0000E+00  0.0000E+00  0.0000E+00  0.0000E+00  0.0000E+00  0.0000E+00
    -22.153  0.0000E+00  0.0000E+00  0.0000E+00  0.0000E+00  0.0000E+00  0.0000E+00  0.0000E+00  0.0000E+00  0.0000E+00
    -22.008  0.0000E+00  0.0000E+00  0.0000E+00  0.0000E+00  0.0000E+00  0.0000E+00  0.0000E+00  0.0000E+00  0.0000E+00
    -21.864  0.0000E+00  0.0000E+00  0.0000E+00  0.0000E+00  0.0000E+00  0.0000E+00  0.0000E+00  0.0000E+00  0.0000E+00
    -21.719  0.0000E+00  0.0000E+00  0.0000E+00  0.0000E+00  0.0000E+00  0.0000E+00  0.0000E+00  0.0000E+00  0.0000E+00
    -21.574  0.0000E+00  0.0000E+00  0.0000E+00  0.0000E+00  0.0000E+00  0.0000E+00  0.0000E+00  0.0000E+00  0.0000E+00
    -21.429  0.0000E+00  0.0000E+00  0.0000E+00  0.0000E+00  0.0000E+00  0.0000E+00  0.0000E+00  0.0000E+00  0.0000E+00
    -21.285  0.0000E+00  0.0000E+00  0.0000E+00  0.0000E+00  0.0000E+00  0.0000E+00  0.0000E+00  0.0000E+00  0.0000E+00
    -21.140  0.0000E+00  0.0000E+00  0.0000E+00  0.0000E+00  0.0000E+00  0.0000E+00  0.0000E+00  0.0000E+00  0.0000E+00
    -20.995  0.0000E+00  0.0000E+00  0.0000E+00  0.0000E+00  0.0000E+00  0.0000E+00  0.0000E+00  0.0000E+00  0.0000E+00
    -20.850  0.0000E+00  0.0000E+00  0.0000E+00  0.0000E+00  0.0000E+00  0.0000E+00  0.0000E+00  0.0000E+00  0.0000E+00
    -20.706  0.0000E+00  0.0000E+00  0.0000E+00  0.0000E+00  0.0000E+00  0.0000E+00  0.0000E+00  0.0000E+00  0.0000E+00
    -20.561  0.0000E+00  0.0000E+00  0.0000E+00  0.0000E+00  0.0000E+00  0.0000E+00  0.0000E+00  0.0000E+00  0.0000E+00
    -20.416  0.0000E+00  0.0000E+00  0.0000E+00  0.0000E+00  0.0000E+00  0.0000E+00  0.0000E+00  0.0000E+00  0.0000E+00
    -20.271  0.0000E+00  0.0000E+00  0.0000E+00  0.0000E+00  0.0000E+00  0.0000E+00  0.0000E+00  0.0000E+00  0.0000E+00
    -20.127  0.0000E+00  0.0000E+00  0.0000E+00  0.0000E+00  0.0000E+00  0.0000E+00  0.0000E+00  0.0000E+00  0.0000E+00
    -19.982  0.0000E+00  0.0000E+00  0.0000E+00  0.0000E+00  0.0000E+00  0.0000E+00  0.0000E+00  0.0000E+00  0.0000E+00
    -19.837  0.0000E+00  0.0000E+00  0.0000E+00  0.0000E+00  0.0000E+00  0.0000E+00  0.0000E+00  0.0000E+00  0.0000E+00
    -19.692  0.0000E+00  0.0000E+00  0.0000E+00  0.0000E+00  0.0000E+00  0.0000E+00  0.0000E+00  0.0000E+00  0.0000E+00
    -19.548  0.0000E+00  0.0000E+00  0.0000E+00  0.0000E+00  0.0000E+00  0.0000E+00  0.0000E+00  0.0000E+00  0.0000E+00
    -19.403  0.0000E+00  0.0000E+00  0.0000E+00  0.0000E+00  0.0000E+00  0.0000E+00  0.0000E+00  0.0000E+00  0.0000E+00
    -19.258  0.0000E+00  0.0000E+00  0.0000E+00  0.0000E+00  0.0000E+00  0.0000E+00  0.0000E+00  0.0000E+00  0.0000E+00
    -19.113  0.0000E+00  0.0000E+00  0.0000E+00  0.0000E+00  0.0000E+00  0.0000E+00  0.0000E+00  0.0000E+00  0.0000E+00
    -18.969  0.0000E+00  0.0000E+00  0.0000E+00  0.0000E+00  0.0000E+00  0.0000E+00  0.0000E+00  0.0000E+00  0.0000E+00
    -18.824  0.0000E+00  0.0000E+00  0.0000E+00  0.0000E+00  0.0000E+00  0.0000E+00  0.0000E+00  0.0000E+00  0.0000E+00
    -18.679  0.0000E+00  0.0000E+00  0.0000E+00  0.0000E+00  0.0000E+00  0.0000E+00  0.0000E+00  0.0000E+00  0.0000E+00
    -18.534  0.0000E+00  0.0000E+00  0.0000E+00  0.0000E+00  0.0000E+00  0.0000E+00  0.0000E+00  0.0000E+00  0.0000E+00
    -18.390  0.0000E+00  0.0000E+00  0.0000E+00  0.0000E+00  0.0000E+00  0.0000E+00  0.0000E+00  0.0000E+00  0.0000E+00
    -18.245  0.0000E+00  0.0000E+00  0.0000E+00  0.0000E+00  0.0000E+00  0.0000E+00  0.0000E+00  0.0000E+00  0.0000E+00
    -18.100  0.0000E+00  0.0000E+00  0.0000E+00  0.0000E+00  0.0000E+00  0.0000E+00  0.0000E+00  0.0000E+00  0.0000E+00
    -17.955  0.0000E+00  0.0000E+00  0.0000E+00  0.0000E+00  0.0000E+00  0.0000E+00  0.0000E+00  0.0000E+00  0.0000E+00
    -17.810  0.0000E+00  0.0000E+00  0.0000E+00  0.0000E+00  0.0000E+00  0.0000E+00  0.0000E+00  0.0000E+00  0.0000E+00
    -17.666  0.0000E+00  0.0000E+00  0.0000E+00  0.0000E+00  0.0000E+00  0.0000E+00  0.0000E+00  0.0000E+00  0.0000E+00
    -17.521  0.0000E+00  0.0000E+00  0.0000E+00  0.0000E+00  0.0000E+00  0.0000E+00  0.0000E+00  0.0000E+00  0.0000E+00
    -17.376  0.0000E+00  0.0000E+00  0.0000E+00  0.0000E+00  0.0000E+00  0.0000E+00  0.0000E+00  0.0000E+00  0.0000E+00
    -17.231  0.0000E+00  0.0000E+00  0.0000E+00  0.0000E+00  0.0000E+00  0.0000E+00  0.0000E+00  0.0000E+00  0.0000E+00
    -17.087  0.0000E+00  0.0000E+00  0.0000E+00  0.0000E+00  0.0000E+00  0.0000E+00  0.0000E+00  0.0000E+00  0.0000E+00
    -16.942  0.0000E+00  0.0000E+00  0.0000E+00  0.0000E+00  0.0000E+00  0.0000E+00  0.0000E+00  0.0000E+00  0.0000E+00
    -16.797  0.0000E+00  0.0000E+00  0.0000E+00  0.0000E+00  0.0000E+00  0.0000E+00  0.0000E+00  0.0000E+00  0.0000E+00
    -16.652  0.0000E+00  0.0000E+00  0.0000E+00  0.0000E+00  0.0000E+00  0.0000E+00  0.0000E+00  0.0000E+00  0.0000E+00
    -16.508  0.0000E+00  0.0000E+00  0.0000E+00  0.0000E+00  0.0000E+00  0.0000E+00  0.0000E+00  0.0000E+00  0.0000E+00
    -16.363  0.0000E+00  0.0000E+00  0.0000E+00  0.0000E+00  0.0000E+00  0.0000E+00  0.0000E+00  0.0000E+00  0.0000E+00
    -16.218  0.0000E+00  0.0000E+00  0.0000E+00  0.0000E+00  0.0000E+00  0.0000E+00  0.0000E+00  0.0000E+00  0.0000E+00
    -16.073  0.0000E+00  0.0000E+00  0.0000E+00  0.0000E+00  0.0000E+00  0.0000E+00  0.0000E+00  0.0000E+00  0.0000E+00
    -15.929  0.0000E+00  0.0000E+00  0.0000E+00  0.0000E+00  0.0000E+00  0.0000E+00  0.0000E+00  0.0000E+00  0.0000E+00
    -15.784  0.0000E+00  0.0000E+00  0.0000E+00  0.0000E+00  0.0000E+00  0.0000E+00  0.0000E+00  0.0000E+00  0.0000E+00
    -15.639  0.0000E+00  0.0000E+00  0.0000E+00  0.0000E+00  0.0000E+00  0.0000E+00  0.0000E+00  0.0000E+00  0.0000E+00
    -15.494  0.0000E+00  0.0000E+00  0.0000E+00  0.0000E+00  0.0000E+00  0.0000E+00  0.0000E+00  0.0000E+00  0.0000E+00
    -15.350  0.0000E+00  0.0000E+00  0.0000E+00  0.0000E+00  0.0000E+00  0.0000E+00  0.0000E+00  0.0000E+00  0.0000E+00
    -15.205  0.0000E+00  0.0000E+00  0.0000E+00  0.0000E+00  0.0000E+00  0.0000E+00  0.0000E+00  0.0000E+00  0.0000E+00
    -15.060  0.0000E+00  0.0000E+00  0.0000E+00  0.0000E+00  0.0000E+00  0.0000E+00  0.0000E+00  0.0000E+00  0.0000E+00
    -14.915  0.0000E+00  0.0000E+00  0.0000E+00  0.0000E+00  0.0000E+00  0.0000E+00  0.0000E+00  0.0000E+00  0.0000E+00
    -14.771 -0.4638E-44 -0.1479E-57 -0.9234E-58 -0.4924E-29 -0.1586E-53 -0.6653E-61 -0.3325E-50 -0.9638E-53 -0.9976E-50
    -14.626 -0.1751E-27 -0.5585E-41 -0.3487E-41 -0.1859E-12 -0.5988E-37 -0.2512E-44 -0.1256E-33 -0.3639E-36 -0.3767E-33
    -14.481 -0.1465E-16 -0.6850E-32 -0.4270E-32 -0.2277E-03 -0.7333E-28 -0.3666E-35 -0.2470E-19 -0.4457E-27 -0.7409E-19
    -14.336 -0.9571E-06 -0.4170E-16 -0.6993E-29  0.8675E-01 -0.5248E-18 -0.3981E-25 -0.1638E-08  0.1682E-24 -0.4913E-08
    -14.192  0.3974E-02 -0.5839E-05 -0.4593E-24  0.5195E-01 -0.7586E-07 -0.3699E-19  0.6871E-05 -0.8816E-19  0.2062E-04
    -14.047  0.1297E-01  0.3862E-01 -0.8054E-10  0.9691E-01  0.4872E-03 -0.8316E-12  0.1554E-04 -0.8316E-12  0.2808E-04
    -13.902  0.8820E-02  0.8162E-01 -0.1276E-02  0.4482E+00  0.3891E-02 -0.1318E-04  0.1326E-04 -0.1318E-04 -0.1302E-07
    -13.757  0.6826E-02  0.6470E-01  0.6476E-01  0.5952E-01  0.6282E-03  0.6687E-03 -0.9979E-08  0.6479E-03  0.2428E-17
    -13.612 -0.2290E-03 -0.2170E-02 -0.2170E-02  0.3531E+00  0.2668E-02 -0.2241E-04  0.5080E-19  0.2668E-02  0.9342E-19
    -13.468 -0.2540E-09 -0.2408E-08 -0.2408E-08 -0.3447E-02 -0.2611E-04 -0.2486E-10 -0.5654E-21 -0.2611E-04 -0.1696E-20
    -13.323 -0.7215E-16 -0.5064E-04 -0.4909E-24 -0.5084E-04 -0.4314E-04 -0.1883E-19 -0.2300E-19 -0.1561E-08 -0.8348E-18
    -13.178 -0.3432E-12  0.8041E-01 -0.1350E-11  0.8041E-01  0.3647E-02 -0.1541E-11 -0.2532E-13 -0.1515E-11 -0.1442E-06
    -13.033 -0.7535E-04  0.8235E-01 -0.6631E-03  0.8568E-01 -0.2151E-03 -0.5925E-04 -0.4460E-05 -0.4649E-04  0.1053E-02
    -12.889  0.1084E-01  0.7913E+00  0.1671E+00  0.3148E+00  0.7989E-02  0.6155E-02  0.8772E-03  0.3228E-02  0.5515E-02
    -12.744  0.4224E-02  0.6586E-01  0.7647E-01  0.1336E+00  0.4979E-02  0.1228E-02  0.5027E-02  0.9838E-03  0.4761E-02
    -12.599  0.5127E-02 -0.2191E-04 -0.1111E-03  0.3263E-02  0.6152E-02  0.5849E-03  0.1973E-02  0.4582E-02  0.8754E-03
    -12.454  0.6499E-04 -0.5579E-07  0.9948E-21 -0.2934E-06  0.5851E-03  0.6656E-03  0.4373E-05  0.5858E-03  0.1624E-04
    -12.310 -0.5266E-08 -0.5670E-24 -0.3781E-24 -0.2629E-24 -0.2530E-06 -0.2530E-06 -0.4328E-09 -0.2530E-06 -0.1298E-08
    -12.165  0.0000E+00  0.0000E+00  0.0000E+00  0.0000E+00  0.0000E+00  0.0000E+00  0.0000E+00  0.0000E+00  0.0000E+00
    -12.020  0.0000E+00  0.0000E+00  0.0000E+00  0.0000E+00  0.0000E+00  0.0000E+00  0.0000E+00  0.0000E+00  0.0000E+00
    -11.875  0.0000E+00  0.0000E+00  0.0000E+00  0.0000E+00  0.0000E+00  0.0000E+00  0.0000E+00  0.0000E+00  0.0000E+00
    -11.731  0.0000E+00  0.0000E+00  0.0000E+00  0.0000E+00  0.0000E+00  0.0000E+00  0.0000E+00  0.0000E+00  0.0000E+00
    -11.586 -0.3344E-55 -0.8646E-39 -0.8646E-39 -0.8646E-39 -0.1495E-60 -0.5655E-60 -0.3177E-67 -0.9756E-61 -0.1715E-68
    -11.441 -0.3058E-35 -0.7906E-19 -0.7906E-19 -0.7906E-19 -0.1367E-40 -0.5171E-40 -0.2905E-47 -0.8921E-41 -0.1568E-48
    -11.296 -0.1094E-22 -0.2830E-06 -0.2830E-06 -0.2830E-06 -0.4893E-28 -0.1851E-27 -0.9813E-33 -0.3193E-28 -0.3242E-33
    -11.152  0.1399E-18  0.3840E-02  0.3840E-02  0.3840E-02  0.6640E-24  0.2512E-23 -0.1167E-15  0.4333E-24 -0.3888E-16
    -11.007 -0.3717E-08  0.1875E+00  0.1875E+00  0.1887E+00  0.2855E-22  0.1234E-21 -0.4834E-06  0.1721E-22 -0.1600E-06
    -10.862  0.4433E-04  0.9321E+00  0.1151E+01 -0.1007E-02 -0.2123E-10 -0.2277E-11  0.4136E-03 -0.2130E-10  0.1242E-03
    -10.717  0.1969E-03  0.3074E+00  0.1233E+01  0.6086E-01 -0.6702E-05 -0.1494E-04  0.2819E-03 -0.1475E-04  0.3283E-04
    -10.573 -0.3102E-06  0.3976E+01  0.7549E+01  0.2122E+01  0.2492E-03  0.1484E-02  0.1682E-04  0.1468E-02  0.1694E-04
    -10.428  0.1571E-03  0.1159E+01  0.9130E+00  0.8587E+00  0.1477E-04 -0.1940E-04  0.1203E-03  0.2001E-04  0.1287E-03
    -10.283  0.1703E-02  0.3424E+01  0.1113E+01  0.3298E+01  0.1409E-02  0.8435E-03  0.6197E-03  0.1291E-02  0.1346E-03
    -10.138  0.1611E-02  0.1647E+01  0.4725E+00  0.2521E+01  0.5218E-03  0.1398E-03  0.1370E-03  0.1514E-03  0.9383E-05
     -9.993 -0.6370E-05 -0.2037E-01 -0.7388E-02  0.1553E+01  0.6004E-03 -0.2354E-05 -0.7490E-07 -0.2354E-05 -0.1869E-08
     -9.849 -0.1775E-09 -0.2291E-06 -0.2272E-06  0.4919E+00 -0.6983E-06 -0.7240E-10  0.5561E-22 -0.7240E-10  0.1748E-21
     -9.704 -0.9327E-20 -0.2660E-30 -0.1750E-30 -0.1961E-02 -0.6954E-27 -0.2478E-35 -0.2327E-24 -0.4002E-26 -0.6982E-24
     -9.559  0.0000E+00  0.0000E+00  0.0000E+00  0.0000E+00  0.0000E+00  0.0000E+00  0.0000E+00  0.0000E+00  0.0000E+00
     -9.414  0.0000E+00  0.0000E+00  0.0000E+00  0.0000E+00  0.0000E+00  0.0000E+00  0.0000E+00  0.0000E+00  0.0000E+00
     -9.270  0.0000E+00  0.0000E+00  0.0000E+00  0.0000E+00  0.0000E+00  0.0000E+00  0.0000E+00  0.0000E+00  0.0000E+00
     -9.125  0.0000E+00  0.0000E+00  0.0000E+00  0.0000E+00  0.0000E+00  0.0000E+00  0.0000E+00  0.0000E+00  0.0000E+00
     -8.980  0.0000E+00  0.0000E+00  0.0000E+00  0.0000E+00  0.0000E+00  0.0000E+00  0.0000E+00  0.0000E+00  0.0000E+00
     -8.835  0.0000E+00  0.0000E+00  0.0000E+00  0.0000E+00  0.0000E+00  0.0000E+00  0.0000E+00  0.0000E+00  0.0000E+00
     -8.691  0.0000E+00  0.0000E+00  0.0000E+00  0.0000E+00  0.0000E+00  0.0000E+00  0.0000E+00  0.0000E+00  0.0000E+00
     -8.546  0.0000E+00  0.0000E+00  0.0000E+00  0.0000E+00  0.0000E+00  0.0000E+00  0.0000E+00  0.0000E+00  0.0000E+00
     -8.401  0.0000E+00  0.0000E+00  0.0000E+00  0.0000E+00  0.0000E+00  0.0000E+00  0.0000E+00  0.0000E+00  0.0000E+00
     -8.256  0.0000E+00  0.0000E+00  0.0000E+00  0.0000E+00  0.0000E+00  0.0000E+00  0.0000E+00  0.0000E+00  0.0000E+00
     -8.112  0.0000E+00  0.0000E+00  0.0000E+00  0.0000E+00  0.0000E+00  0.0000E+00  0.0000E+00  0.0000E+00  0.0000E+00
     -7.967  0.0000E+00  0.0000E+00  0.0000E+00  0.0000E+00  0.0000E+00  0.0000E+00  0.0000E+00  0.0000E+00  0.0000E+00