    5    5  100    1
  0.1138240E+02  0.3846520E-09  0.3846520E-09  0.3846520E-09  0.5000000E-15
  1.000000000000000E-004
  CAR 
 unknown system                          
     33     10     20
 
  0.0000000E+00  0.0000000E+00  0.0000000E+00  0.1562500E-01
    1      -28.575267   1.000000
    2      -14.099735   1.000000
    3      -12.810052   1.000000
    4      -12.810052   1.000000
    5      -10.716416   1.000000
    6      -10.716416   1.000000
    7      -10.716416   1.000000
    8        0.299027   1.000000
    9        0.299027   1.000000
   10        0.299027   1.000000
   11        2.237403   1.000000
   12        2.237403   1.000000
   13        2.237403   1.000000
   14        3.198023   1.000000
   15        3.198023   1.000000
   16        3.198023   1.000000
   17        4.495408   1.000000
   18        4.495408   1.000000
   19        4.495408   1.000000
   20        6.940672  -0.000000
 
  0.2500000E+00  0.0000000E+00  0.0000000E+00  0.9375000E-01
    1      -28.554870   1.000000
    2      -14.186956   1.000000
    3      -12.828592   1.000000
    4      -12.781195   1.000000
    5      -10.676897   1.000000
    6      -10.676897   1.000000
    7      -10.291262   1.000000
    8       -0.535900   1.000000
    9        0.239969   1.000000
   10        0.239969   1.000000
   11        1.422497   1.000000
   12        1.422497   1.000000
   13        1.702674   1.000000
   14        1.764640   1.000000
   15        2.872676   1.000000
   16        2.872676   1.000000
   17        4.564952   1.000000
   18        5.736366   0.455223
   19        5.736366   0.455223
   20        6.961837  -0.000000
 
  0.5000000E+00  0.0000000E+00  0.0000000E+00  0.4687500E-01
    1      -28.534311   1.000000
    2      -14.364435   1.000000
    3      -12.751951   1.000000
    4      -12.637793   1.000000
    5      -10.636594   1.000000
    6      -10.636594   1.000000
    7       -9.959321   1.000000
    8       -1.367215   1.000000
    9        0.192869   1.000000
   10        0.192869   1.000000
   11        0.838462   1.000000
   12        0.838462   1.000000
   13        0.874490   1.000000
   14        1.259500   1.000000
   15        2.706426   1.000000
   16        2.706426   1.000000
   17        4.636981   1.000000
   18        6.618977  -0.000000
   19        6.618977  -0.000000
   20        6.973022  -0.000000
 
  0.2500000E+00  0.2500000E+00  0.0000000E+00  0.1875000E+00
    1      -28.536471   1.000000
    2      -14.035694   1.000000
    3      -13.020637   1.000000
    4      -12.735372   1.000000
    5      -10.634208   1.000000
    6      -10.447601   1.000000
    7      -10.276125   1.000000
    8       -0.845787   1.000000
    9       -0.325623   1.000000
   10        0.066585   1.000000
   11        0.211035   1.000000
   12        0.970411   1.000000
   13        1.653783   1.000000
   14        2.083793   1.000000
   15        2.225051   1.000000
   16        2.733858   1.000000
   17        5.663545   1.031646
   18        5.817509  -0.019611
   19        6.042053  -0.000000
   20        7.671541   0.000000
 
  0.5000000E+00  0.2500000E+00  0.0000000E+00  0.1875000E+00
    1      -28.517938   1.000000
    2      -14.004766   1.000000
    3      -12.934270   1.000000
    4      -12.771285   1.000000
    5      -10.590623   1.000000
    6      -10.407761   1.000000
    7      -10.121384   1.000000
    8       -1.418764   1.000000
    9       -0.920927   1.000000
   10       -0.435258   1.000000
   11        0.203961   1.000000
   12        0.516354   1.000000
   13        1.506179   1.000000
   14        1.915342   1.000000
   15        1.952690   1.000000
   16        2.812051   1.000000
   17        5.752967   0.199409
   18        6.601530  -0.000000
   19        6.658727  -0.000000
   20        7.809008   0.000000
 
  0.5000000E+00  0.5000000E+00  0.0000000E+00  0.4687500E-01
    1      -28.501456   1.000000
    2      -13.277752   1.000000
    3      -13.186848   1.000000
    4      -13.186848   1.000000
    5      -10.543603   1.000000
    6      -10.214370   1.000000
    7      -10.214370   1.000000
    8       -1.664748   1.000000
    9       -1.631893   1.000000
   10       -1.202094   1.000000
   11        0.215491   1.000000
   12        0.215491   1.000000
   13        1.431689   1.000000
   14        1.907239   1.000000
   15        1.907239   1.000000
   16        3.441919   1.000000
   17        6.591205  -0.000000
   18        6.591205  -0.000000
   19        6.942280  -0.000000
   20        8.070318   0.000000
 
  0.2500000E+00  0.2500000E+00  0.2500000E+00  0.1250000E+00
    1      -28.519368   1.000000
    2      -13.819528   1.000000
    3      -12.867693   1.000000
    4      -12.867693   1.000000
    5      -10.646676   1.000000
    6      -10.646676   1.000000
    7      -10.184415   1.000000
    8       -1.081592   1.000000
    9       -0.312611   1.000000
   10       -0.312611   1.000000
   11        0.198990   1.000000
   12        0.198990   1.000000
   13        0.358949   1.000000
   14        2.520367   1.000000
   15        2.520367   1.000000
   16        2.853907   1.000000
   17        6.100494  -0.000000
   18        6.182535  -0.000000
   19        6.182535  -0.000000
   20        9.339590   0.000000
 
  0.5000000E+00  0.2500000E+00  0.2500000E+00  0.1875000E+00
    1      -28.502149   1.000000
    2      -13.657035   1.000000
    3      -12.924219   1.000000
    4      -12.681304   1.000000
    5      -10.880363   1.000000
    6      -10.388936   1.000000
    7      -10.362771   1.000000
    8       -1.438332   1.000000
    9       -0.861060   1.000000
   10       -0.477319   1.000000
   11       -0.269662   1.000000
   12       -0.231726   1.000000
   13        0.447725   1.000000
   14        2.475918   1.000000
   15        2.656778   1.000000
   16        2.936352   1.000000
   17        6.259584  -0.000000
   18        6.744085  -0.000000
   19        6.775020  -0.000000
   20        9.306389   0.000000
 
  0.5000000E+00  0.5000000E+00  0.2500000E+00  0.9375000E-01
    1      -28.486261   1.000000
    2      -12.955968   1.000000
    3      -12.945976   1.000000
    4      -12.945976   1.000000
    5      -10.841601   1.000000
    6      -10.613404   1.000000
    7      -10.613404   1.000000
    8       -1.627667   1.000000
    9       -1.192222   1.000000
   10       -1.074749   1.000000
   11       -0.231003   1.000000
   12       -0.231003   1.000000
   13       -0.138452   1.000000
   14        2.806125   1.000000
   15        2.806125   1.000000
   16        3.496279   1.000000
   17        6.860546  -0.000000
   18        6.860546  -0.000000
   19        7.074962  -0.000000
   20        9.797677   0.000000
 
  0.5000000E+00  0.5000000E+00  0.5000000E+00  0.1562500E-01
    1      -28.470981   1.000000
    2      -12.597295   1.000000
    3      -12.597295   1.000000
    4      -12.597295   1.000000
    5      -11.113416   1.000000
    6      -11.113416   1.000000
    7      -11.113416   1.000000
    8       -1.813633   1.000000
    9       -1.182525   1.000000
   10       -1.182525   1.000000
   11       -0.498788   1.000000
   12       -0.498788   1.000000
   13       -0.498788   1.000000
   14        3.551887   1.000000
   15        3.551887   1.000000
   16        3.551887   1.000000
   17        7.220801   0.000000
   18        7.220801   0.000000
   19        7.220801   0.000000
   20       10.904420   0.000000
