       N       E                     dE             d eps       ncg     rms          rms(c)
DAV:   1     0.387099531881E+03    0.38710E+03   -0.17265E+04   408   0.211E+03
DAV:   2     0.263659232334E+02   -0.36073E+03   -0.33961E+03   428   0.457E+02
DAV:   3    -0.492712546574E+02   -0.75637E+02   -0.72762E+02   632   0.189E+02
DAV:   4    -0.534093023476E+02   -0.41380E+01   -0.40546E+01   572   0.470E+01
DAV:   5    -0.535889456301E+02   -0.17964E+00   -0.16929E+00   644   0.684E+00    0.383E+01
RMM:   6    -0.447161009290E+02    0.88728E+01   -0.69480E+01   481   0.761E+01    0.149E+01
RMM:   7    -0.436016037195E+02    0.11145E+01   -0.92092E+00   513   0.355E+01    0.138E+01
RMM:   8    -0.432344180416E+02    0.36719E+00   -0.22989E+00   487   0.134E+01    0.428E+00
RMM:   9    -0.432603553889E+02   -0.25937E-01   -0.73127E-01   574   0.482E+00    0.768E-01
RMM:  10    -0.432567477441E+02    0.36076E-02   -0.46548E-02   546   0.161E+00    0.285E-01
RMM:  11    -0.432581973723E+02   -0.14496E-02   -0.21017E-02   597   0.723E-01    0.166E-01
RMM:  12    -0.432585670291E+02   -0.36966E-03   -0.71022E-03   585   0.328E-01    0.885E-02
RMM:  13    -0.432587823562E+02   -0.21533E-03   -0.37778E-03   553   0.379E-01    0.491E-02
RMM:  14    -0.432589375197E+02   -0.15516E-03   -0.21867E-03   580   0.165E-01    0.480E-02
RMM:  15    -0.432590515209E+02   -0.11400E-03   -0.11786E-03   611   0.848E-02    0.545E-02
RMM:  16    -0.432591250374E+02   -0.73516E-04   -0.97628E-04   568   0.113E-01    0.330E-02
RMM:  17    -0.432591634185E+02   -0.38381E-04   -0.44721E-04   571   0.598E-02    0.303E-02
RMM:  18    -0.432591890978E+02   -0.25679E-04   -0.31345E-04   602   0.431E-02    0.261E-02
RMM:  19    -0.432592021561E+02   -0.13058E-04   -0.16583E-04   597   0.335E-02    0.237E-02
RMM:  20    -0.432592130023E+02   -0.10846E-04   -0.11495E-04   537   0.223E-02    0.245E-02
RMM:  21    -0.432592190010E+02   -0.59987E-05   -0.63005E-05   402   0.168E-02    0.259E-02
RMM:  22    -0.432592182500E+02    0.75099E-06   -0.53958E-05   558   0.317E-02    0.121E-02
RMM:  23    -0.432592200380E+02   -0.17879E-05   -0.21581E-05   564   0.184E-02    0.937E-03
RMM:  24    -0.432592217720E+02   -0.17340E-05   -0.17215E-05   553   0.120E-02    0.848E-03
RMM:  25    -0.432592222797E+02   -0.50774E-06   -0.97239E-06   537   0.109E-02    0.410E-03
RMM:  26    -0.432592227768E+02   -0.49713E-06   -0.77347E-06   572   0.118E-02    0.297E-03
RMM:  27    -0.432592231164E+02   -0.33954E-06   -0.35522E-06   395   0.609E-03    0.264E-03
RMM:  28    -0.432592233259E+02   -0.20958E-06   -0.28948E-06   485   0.609E-03    0.144E-03
RMM:  29    -0.432592234685E+02   -0.14255E-06   -0.15164E-06   340   0.402E-03    0.139E-03
RMM:  30    -0.432592235700E+02   -0.10148E-06   -0.10781E-06   312   0.269E-03    0.142E-03
RMM:  31    -0.432592236226E+02   -0.52631E-07   -0.58347E-07   284   0.180E-03    0.133E-03
RMM:  32    -0.432592236641E+02   -0.41467E-07   -0.45094E-07   273   0.146E-03    0.141E-03
RMM:  33    -0.432592236801E+02   -0.16041E-07   -0.22076E-07   263   0.131E-03    0.128E-03
RMM:  34    -0.432592236935E+02   -0.13390E-07   -0.17672E-07   263   0.115E-03    0.127E-03
RMM:  35    -0.432592237009E+02   -0.74247E-08   -0.91725E-08   251   0.106E-03
   1 F= -.43259224E+02 E0= -.43258447E+02  d E =-.432592E+02
       N       E                     dE             d eps       ncg     rms          rms(c)
DAV:   1    -0.452641808642E+02   -0.20050E+01   -0.52238E+01   484   0.665E+01    0.168E+01
RMM:   2    -0.436554035279E+02    0.16088E+01   -0.92057E+00   490   0.261E+01    0.106E+01
RMM:   3    -0.432554294811E+02    0.39997E+00   -0.11452E+00   447   0.137E+01    0.236E+00
RMM:   4    -0.432308099905E+02    0.24619E-01   -0.55414E-01   514   0.508E+00    0.120E+00
RMM:   5    -0.432296297851E+02    0.11802E-02   -0.59790E-02   509   0.211E+00    0.741E-01
RMM:   6    -0.432341538753E+02   -0.45241E-02   -0.25099E-02   537   0.998E-01    0.451E-01
RMM:   7    -0.432353236460E+02   -0.11698E-02   -0.72153E-03   538   0.483E-01    0.165E-01
RMM:   8    -0.432354177561E+02   -0.94110E-04   -0.24796E-03   537   0.291E-01    0.751E-02
RMM:   9    -0.432355184148E+02   -0.10066E-03   -0.10289E-03   534   0.125E-01    0.692E-02
RMM:  10    -0.432356399977E+02   -0.12158E-03   -0.94458E-04   543   0.184E-01    0.113E-01
RMM:  11    -0.432356434087E+02   -0.34110E-05   -0.25687E-04   543   0.110E-01    0.730E-02
RMM:  12    -0.432356177297E+02    0.25679E-04   -0.51635E-04   545   0.129E-01    0.111E-02
RMM:  13    -0.432356311466E+02   -0.13417E-04   -0.13915E-04   552   0.581E-02    0.146E-02
RMM:  14    -0.432356346871E+02   -0.35405E-05   -0.52335E-05   531   0.273E-02    0.885E-03
RMM:  15    -0.432356370661E+02   -0.23789E-05   -0.30488E-05   544   0.208E-02    0.489E-03
RMM:  16    -0.432356390062E+02   -0.19402E-05   -0.18631E-05   556   0.212E-02    0.664E-03
RMM:  17    -0.432356395048E+02   -0.49860E-06   -0.11225E-05   513   0.158E-02    0.141E-03
RMM:  18    -0.432356400425E+02   -0.53765E-06   -0.57304E-06   478   0.102E-02    0.115E-03
RMM:  19    -0.432356404910E+02   -0.44851E-06   -0.45019E-06   363   0.676E-03    0.187E-03
RMM:  20    -0.432356407438E+02   -0.25278E-06   -0.25920E-06   300   0.401E-03    0.225E-03
RMM:  21    -0.432356408131E+02   -0.69305E-07   -0.86265E-07   290   0.297E-03    0.200E-03
RMM:  22    -0.432356408859E+02   -0.72785E-07   -0.53733E-07   290   0.244E-03    0.261E-03
RMM:  23    -0.432356409432E+02   -0.57315E-07   -0.33067E-07   298   0.244E-03    0.309E-03
RMM:  24    -0.432356409660E+02   -0.22845E-07   -0.16343E-07   274   0.222E-03    0.333E-03
RMM:  25    -0.432356409849E+02   -0.18920E-07   -0.12906E-07   270   0.168E-03    0.349E-03
RMM:  26    -0.432356409888E+02   -0.38940E-08   -0.64899E-08   250   0.145E-03
   2 F= -.43235641E+02 E0= -.43234807E+02  d E =0.235827E-01
       N       E                     dE             d eps       ncg     rms          rms(c)
DAV:   1    -0.438829549306E+02   -0.64731E+00   -0.13852E+01   472   0.341E+01    0.761E+00
RMM:   2    -0.434884103302E+02    0.39454E+00   -0.26198E+00   467   0.137E+01    0.546E+00
RMM:   3    -0.433642383281E+02    0.12417E+00   -0.39892E-01   437   0.890E+00    0.178E+00
RMM:   4    -0.433434253562E+02    0.20813E-01   -0.14426E-01   513   0.309E+00    0.151E+00
RMM:   5    -0.433434971427E+02   -0.71787E-04   -0.26319E-02   522   0.122E+00    0.792E-01
RMM:   6    -0.433446184315E+02   -0.11213E-02   -0.71695E-03   530   0.566E-01    0.204E-01
RMM:   7    -0.433446620820E+02   -0.43650E-04   -0.10649E-03   548   0.211E-01    0.369E-02
RMM:   8    -0.433446896668E+02   -0.27585E-04   -0.30359E-04   540   0.885E-02    0.333E-02
RMM:   9    -0.433447011517E+02   -0.11485E-04   -0.12803E-04   550   0.456E-02    0.247E-02
RMM:  10    -0.433447080313E+02   -0.68796E-05   -0.93440E-05   507   0.491E-02    0.389E-03
RMM:  11    -0.433447124710E+02   -0.44398E-05   -0.44194E-05   549   0.236E-02    0.887E-03
RMM:  12    -0.433447149747E+02   -0.25037E-05   -0.26550E-05   383   0.133E-02    0.809E-03
RMM:  13    -0.433447164595E+02   -0.14848E-05   -0.15147E-05   334   0.976E-03    0.699E-03
RMM:  14    -0.433447170748E+02   -0.61532E-06   -0.84945E-06   451   0.904E-03    0.571E-03
RMM:  15    -0.433447172536E+02   -0.17874E-06   -0.76752E-06   564   0.144E-02    0.339E-03
RMM:  16    -0.433447175508E+02   -0.29722E-06   -0.27852E-06   461   0.695E-03    0.315E-03
RMM:  17    -0.433447176508E+02   -0.99968E-07   -0.20445E-06   515   0.672E-03    0.160E-03
RMM:  18    -0.433447177674E+02   -0.11658E-06   -0.10782E-06   427   0.487E-03    0.227E-03
RMM:  19    -0.433447178298E+02   -0.62433E-07   -0.58041E-07   319   0.340E-03    0.250E-03
RMM:  20    -0.433447178443E+02   -0.14546E-07   -0.39864E-07   285   0.241E-03    0.215E-03
RMM:  21    -0.433447178348E+02    0.95388E-08   -0.17038E-07   285   0.191E-03    0.159E-03
RMM:  22    -0.433447178480E+02   -0.13154E-07   -0.13634E-07   260   0.172E-03    0.150E-03
RMM:  23    -0.433447178358E+02    0.12176E-07   -0.11502E-07   353   0.211E-03    0.494E-04
RMM:  24    -0.433447178356E+02    0.15916E-09   -0.25237E-08   247   0.241E-03
   3 F= -.43344718E+02 E0= -.43343916E+02  d E =-.854941E-01
       N       E                     dE             d eps       ncg     rms          rms(c)
DAV:   1    -0.433447987557E+02   -0.80920E-04   -0.16963E-03   472   0.377E-01    0.819E-02
RMM:   2    -0.433447488095E+02    0.49946E-04   -0.31446E-04   474   0.153E-01    0.583E-02
RMM:   3    -0.433447345797E+02    0.14230E-04   -0.50785E-05   445   0.106E-01    0.157E-02
RMM:   4    -0.433447326553E+02    0.19244E-05   -0.18201E-05   522   0.341E-02    0.117E-02
RMM:   5    -0.433447326870E+02   -0.31776E-07   -0.29900E-06   496   0.138E-02    0.811E-03
RMM:   6    -0.433447328100E+02   -0.12292E-06   -0.57550E-07   487   0.625E-03    0.376E-03
RMM:   7    -0.433447328363E+02   -0.26341E-07   -0.17684E-07   336   0.302E-03    0.407E-04
RMM:   8    -0.433447328390E+02   -0.27308E-08   -0.52807E-08   259   0.192E-03
   4 F= -.43344733E+02 E0= -.43343931E+02  d E =-.855091E-01
