 vasp.5.4.4.18Apr17-6-g9f103f2a35 (build Oct 08 2019 13:33:54) complex          
  
 executed on             LinuxIFC date 2019.10.15  12:40:00
 running on    4 total cores
 distrk:  each k-point on    4 cores,    1 groups
 distr:  one band on NCORES_PER_BAND=   1 cores,    4 groups


--------------------------------------------------------------------------------------------------------


 INCAR:
 POTCAR:    PAW Sr_sv 10Feb1998                   
 POTCAR:    PAW V 07Aug2001                       
 POTCAR:    PAW O 22Mar2012                       
 POTCAR:    PAW Sr_sv 10Feb1998                   
   VRHFIN =Sr: 3s3p4s                                                           
   LEXCH  = CA                                                                  
   EATOM  =   845.5689 eV,   62.1476 Ry                                         
                                                                                
   TITEL  = PAW Sr_sv 10Feb1998                                                 
   LULTRA =        F    use ultrasoft PP ?                                      
   IUNSCR =        1    unscreen: 0-lin 1-nonlin 2-no                           
   RPACOR =    2.200    partial core radius                                     
   POMASS =   87.620; ZVAL   =   10.000    mass and valenz                      
   RCORE  =    2.500    outmost cutoff radius                                   
   RWIGS  =    4.040; RWIGS  =    2.138    wigner-seitz radius (au A)           
   ENMAX  =  226.327; ENMIN  =  169.745 eV                                      
   RCLOC  =    2.201    cutoff for local pot                                    
   LCOR   =        T    correct aug charges                                     
   LPAW   =        T    paw PP                                                  
   EAUG   =  366.804                                                            
   DEXC   =    0.000                                                            
   RMAX   =    2.547    core radius for proj-oper                               
   RAUG   =    1.300    factor for augmentation sphere                          
   RDEP   =    2.562    radius for radial grids                                 
   RDEPT  =    2.145    core radius for aug-charge                              
                                                                                
   Atomic configuration                                                         
   10 entries                                                                   
     n  l   j            E        occ.                                          
     1  0  0.50    -15851.8828   2.0000                                         
     2  0  0.50     -2148.9480   2.0000                                         
     2  1  1.50     -1912.9353   6.0000                                         
     3  0  0.50      -331.8462   2.0000                                         
     3  1  1.50      -255.3856   6.0000                                         
     3  2  2.50      -128.2784  10.0000                                         
     4  0  0.50       -40.8303   2.0000                                         
     5  0  0.50        -3.6422   1.9990                                         
     4  1  1.50       -22.8493   6.0000                                         
     4  2  1.50        -1.4198   0.0010                                         
   Description                                                                  
     l       E           TYP  RCUT    TYP  RCUT                                 
     0    -40.8303494     23  2.500                                             
     0     -3.6421860     23  2.500                                             
     1    -22.8492718     23  2.500                                             
     1    -24.2098544     23  2.500                                             
     2     -1.4197899     23  2.500                                             
     2      0.0045700     23  2.500                                             
  local pseudopotential read in
  partial core-charges read in
  partial kinetic energy density read in
  atomic valenz-charges read in
  non local Contribution for L=           0  read in
    real space projection operators read in
  non local Contribution for L=           0  read in
    real space projection operators read in
  non local Contribution for L=           1  read in
    real space projection operators read in
  non local Contribution for L=           1  read in
    real space projection operators read in
  non local Contribution for L=           2  read in
    real space projection operators read in
  non local Contribution for L=           2  read in
    real space projection operators read in
    PAW grid and wavefunctions read in
 
   number of l-projection  operators is LMAX  =           6
   number of lm-projection operators is LMMAX =          18
 
 POTCAR:    PAW V 07Aug2001                       
   VRHFIN =V: d4 s1                                                             
   LEXCH  = CA                                                                  
   EATOM  =   172.4520 eV,   12.6749 Ry                                         
                                                                                
   TITEL  = PAW V 07Aug2001                                                     
   LULTRA =        F    use ultrasoft PP ?                                      
   IUNSCR =        1    unscreen: 0-lin 1-nonlin 2-no                           
   RPACOR =    2.000    partial core radius                                     
   POMASS =   50.941; ZVAL   =    5.000    mass and valenz                      
   RCORE  =    2.700    outmost cutoff radius                                   
   RWIGS  =    2.500; RWIGS  =    1.323    wigner-seitz radius (au A)           
   ENMAX  =  192.706; ENMIN  =  144.529 eV                                      
   RCLOC  =    1.779    cutoff for local pot                                    
   LCOR   =        T    correct aug charges                                     
   LPAW   =        T    paw PP                                                  
   EAUG   =  358.662                                                            
   DEXC   =    0.000                                                            
   RMAX   =    2.768    core radius for proj-oper                               
   RAUG   =    1.300    factor for augmentation sphere                          
   RDEP   =    2.762    radius for radial grids                                 
   RDEPT  =    2.240    core radius for aug-charge                              
                                                                                
   Atomic configuration                                                         
    9 entries                                                                   
     n  l   j            E        occ.                                          
     1  0  0.50     -5334.6266   2.0000                                         
     2  0  0.50      -595.8619   2.0000                                         
     2  1  1.50      -498.2253   6.0000                                         
     3  0  0.50       -66.0397   2.0000                                         
     3  1  1.50       -40.3979   6.0000                                         
     3  2  2.50        -2.6339   4.0000                                         
     4  0  0.50        -4.0392   1.0000                                         
     4  1  0.50        -4.0817   0.0000                                         
     4  3  2.50        -1.3606   0.0000                                         
   Description                                                                  
     l       E           TYP  RCUT    TYP  RCUT                                 
     2     -2.6338511     23  2.700                                             
     2     -3.9944337     23  2.700                                             
     0     -4.0392463     23  2.700                                             
     0     27.2116520     23  2.700                                             
     1     -4.0817478     23  2.700                                             
     1     27.2116520     23  2.700                                             
  local pseudopotential read in
  partial core-charges read in
  partial kinetic energy density read in
  atomic valenz-charges read in
  non local Contribution for L=           2  read in
    real space projection operators read in
  non local Contribution for L=           2  read in
    real space projection operators read in
  non local Contribution for L=           0  read in
    real space projection operators read in
  non local Contribution for L=           0  read in
    real space projection operators read in
  non local Contribution for L=           1  read in
    real space projection operators read in
  non local Contribution for L=           1  read in
    real space projection operators read in
    PAW grid and wavefunctions read in
 
   number of l-projection  operators is LMAX  =           6
   number of lm-projection operators is LMMAX =          18
 
 POTCAR:    PAW O 22Mar2012                       
   VRHFIN =O: s2p4                                                              
   LEXCH  = CA                                                                  
   EATOM  =   431.4380 eV,   31.7098 Ry                                         
                                                                                
   TITEL  = PAW O 22Mar2012                                                     
   LULTRA =        F    use ultrasoft PP ?                                      
   IUNSCR =        1    unscreen: 0-lin 1-nonlin 2-no                           
   RPACOR =    1.200    partial core radius                                     
   POMASS =   16.000; ZVAL   =    6.000    mass and valenz                      
   RCORE  =    1.520    outmost cutoff radius                                   
   RWIGS  =    1.550; RWIGS  =    0.820    wigner-seitz radius (au A)           
   ENMAX  =  400.000; ENMIN  =  300.000 eV                                      
   ICORE  =        2    local potential                                         
   LCOR   =        T    correct aug charges                                     
   LPAW   =        T    paw PP                                                  
   EAUG   =  605.392                                                            
   DEXC   =    0.000                                                            
   RMAX   =    1.553    core radius for proj-oper                               
   RAUG   =    1.300    factor for augmentation sphere                          
   RDEP   =    1.550    radius for radial grids                                 
   RDEPT  =    1.329    core radius for aug-charge                              
                                                                                
   Atomic configuration                                                         
    4 entries                                                                   
     n  l   j            E        occ.                                          
     1  0  0.50      -510.4605   2.0000                                         
     2  0  0.50       -23.7367   2.0000                                         
     2  1  0.50        -9.1995   4.0000                                         
     3  2  1.50        -9.5241   0.0000                                         
   Description                                                                  
     l       E           TYP  RCUT    TYP  RCUT                                 
     0    -23.7366993     23  1.200                                             
     0     -9.5240782     23  1.200                                             
     1     -9.1994509     23  1.520                                             
     1      8.1634956     23  1.520                                             
     2     -9.5240782      7  1.500                                             
  local pseudopotential read in
  partial core-charges read in
  partial kinetic energy density read in
  kinetic energy density of atom read in
  atomic valenz-charges read in
  non local Contribution for L=           0  read in
    real space projection operators read in
  non local Contribution for L=           0  read in
    real space projection operators read in
  non local Contribution for L=           1  read in
    real space projection operators read in
  non local Contribution for L=           1  read in
    real space projection operators read in
    PAW grid and wavefunctions read in
 
   number of l-projection  operators is LMAX  =           4
   number of lm-projection operators is LMMAX =           8
 

 ----------------------------------------------------------------------------- 
|                                                                             |
|  ADVICE TO THIS USER RUNNING 'VASP/VAMP'   (HEAR YOUR MASTER'S VOICE ...):  |
|                                                                             |
|      You have a (more or less) 'small supercell' and for smaller cells      |
|      it is recommended  to use the reciprocal-space projection scheme!      |
|      The real space optimization is not  efficient for small cells and it   |
|      is also less accurate ...                                              |
|      Therefore set LREAL=.FALSE. in the  INCAR file                         |
|                                                                             |
 ----------------------------------------------------------------------------- 

 Optimization of the real space projectors (new method)

 maximal supplied QI-value         = 15.12
 optimisation between [QCUT,QGAM] = [ 12.55, 25.10] = [ 44.09,176.36] Ry 
 Optimized for a Real-space Cutoff    1.56 Angstroem

   l    n(q)    QCUT    max X(q) W(low)/X(q) W(high)/X(q)  e(spline) 
   0     12    12.548    11.773    0.26E-04    0.25E-05    0.82E-07
   0     12    12.548     9.806    0.40E-04    0.56E-05    0.15E-06
   1     11    12.548   216.228    0.18E-04    0.13E-03    0.13E-05
   1     11    12.548   219.762    0.18E-04    0.13E-03    0.13E-05
   2     11    12.548   122.811    0.17E-03    0.11E-03    0.74E-06
   2     11    12.548    82.262    0.16E-03    0.10E-03    0.72E-06
 Optimization of the real space projectors (new method)

 maximal supplied QI-value         = 13.98
 optimisation between [QCUT,QGAM] = [ 12.45, 25.03] = [ 43.38,175.46] Ry 
 Optimized for a Real-space Cutoff    1.56 Angstroem

   l    n(q)    QCUT    max X(q) W(low)/X(q) W(high)/X(q)  e(spline) 
   2     11    12.446   110.917    0.19E-03    0.69E-04    0.94E-06
   2     11    12.446   102.877    0.19E-03    0.68E-04    0.94E-06
   0     12    12.446    20.404    0.38E-04    0.66E-04    0.46E-06
   0     12    12.446     9.561    0.26E-04    0.50E-04    0.35E-06
   1     11    12.446    11.203    0.79E-04    0.33E-04    0.61E-06
   1     11    12.446     6.660    0.55E-04    0.25E-04    0.41E-06
 Optimization of the real space projectors (new method)

 maximal supplied QI-value         = 24.76
 optimisation between [QCUT,QGAM] = [ 12.38, 25.00] = [ 42.90,175.06] Ry 
 Optimized for a Real-space Cutoff    1.16 Angstroem

   l    n(q)    QCUT    max X(q) W(low)/X(q) W(high)/X(q)  e(spline) 
   0      9    12.378    20.659    0.16E-03    0.72E-05    0.32E-06
   0      9    12.378    15.633    0.18E-03    0.84E-05    0.34E-06
   1      8    12.378     5.864    0.19E-03    0.15E-03    0.30E-06
   1      8    12.378     5.285    0.17E-03    0.14E-03    0.26E-06
  PAW Sr_sv 10Feb1998                   :
 energy of atom  1       EATOM= -845.5689
 kinetic energy error for atom=    0.0006 (will be added to EATOM!!)
  PAW V 07Aug2001                       :
 energy of atom  2       EATOM= -172.4520
 kinetic energy error for atom=    0.0002 (will be added to EATOM!!)
  PAW O 22Mar2012                       :
 energy of atom  3       EATOM= -431.4380
 kinetic energy error for atom=    0.0165 (will be added to EATOM!!)
 
 
 POSCAR: Sr V O                                  
  positions in direct lattice
  No initial velocities read in
 exchange correlation table for  LEXCH =        2
   RHO(1)=    0.500       N(1)  =     2000
   RHO(2)=  100.500       N(2)  =     4000
 


--------------------------------------------------------------------------------------------------------


 ion  position               nearest neighbor table
   1  0.000  0.000  0.000-   3 2.72   4 2.72   5 2.72   4 2.72   5 2.72   3 2.72   5 2.72   5 2.72
                             3 2.72   4 2.72   4 2.72   3 2.72   2 3.33   2 3.33   2 3.33   2 3.33
   2  0.500  0.500  0.500-   3 1.92   4 1.92   5 1.92   3 1.92   4 1.92   5 1.92   1 3.33   1 3.33
                             1 3.33   1 3.33   1 3.33   1 3.33   1 3.33   1 3.33
   3  0.500  0.500  0.000-   2 1.92   2 1.92   1 2.72   1 2.72   1 2.72   1 2.72
   4  0.500  0.000  0.500-   2 1.92   2 1.92   1 2.72   1 2.72   1 2.72   1 2.72
   5  0.000  0.500  0.500-   2 1.92   2 1.92   1 2.72   1 2.72   1 2.72   1 2.72
 
  LATTYP: Found a simple cubic cell.
 ALAT       =     3.8465200000
  
  Lattice vectors:
  
 A1 = (   3.8465200000,   0.0000000000,   0.0000000000)
 A2 = (   0.0000000000,   3.8465200000,   0.0000000000)
 A3 = (   0.0000000000,   0.0000000000,   3.8465200000)


Analysis of symmetry for initial positions (statically):
=====================================================================
 Subroutine PRICEL returns:
 Original cell was already a primitive cell.
 

 Routine SETGRP: Setting up the symmetry group for a 
 simple cubic supercell.


 Subroutine GETGRP returns: Found 48 space group operations
 (whereof 48 operations were pure point group operations)
 out of a pool of 48 trial point group operations.


The static configuration has the point symmetry O_h .


Analysis of symmetry for dynamics (positions and initial velocities):
=====================================================================
 Subroutine PRICEL returns:
 Original cell was already a primitive cell.
 

 Routine SETGRP: Setting up the symmetry group for a 
 simple cubic supercell.


 Subroutine GETGRP returns: Found 48 space group operations
 (whereof 48 operations were pure point group operations)
 out of a pool of 48 trial point group operations.


The dynamic configuration has the point symmetry O_h .


 Subroutine INISYM returns: Found 48 space group operations
 (whereof 48 operations are pure point group operations),
 and found     1 'primitive' translations

 
 
 KPOINTS: coord.13.02                             

Automatic generation of k-mesh.
Space group operators:
 irot       det(A)        alpha          n_x          n_y          n_z        tau_x        tau_y        tau_z
    1     1.000000     0.000000     1.000000     0.000000     0.000000     0.000000     0.000000     0.000000
    2    -1.000000     0.000000     1.000000     0.000000     0.000000     0.000000     0.000000     0.000000
    3     1.000000   120.000000    -0.577350    -0.577350    -0.577350     0.000000     0.000000     0.000000
    4    -1.000000   120.000000    -0.577350    -0.577350    -0.577350     0.000000     0.000000     0.000000
    5     1.000000   120.000000     0.577350     0.577350     0.577350     0.000000     0.000000     0.000000
    6    -1.000000   120.000000     0.577350     0.577350     0.577350     0.000000     0.000000     0.000000
    7     1.000000    90.000000     0.000000     0.000000    -1.000000     0.000000     0.000000     0.000000
    8    -1.000000    90.000000     0.000000     0.000000    -1.000000     0.000000     0.000000     0.000000
    9     1.000000   180.000000     0.000000     0.707107     0.707107     0.000000     0.000000     0.000000
   10    -1.000000   180.000000     0.000000     0.707107     0.707107     0.000000     0.000000     0.000000
   11     1.000000    90.000000     0.000000     1.000000     0.000000     0.000000     0.000000     0.000000
   12    -1.000000    90.000000     0.000000     1.000000     0.000000     0.000000     0.000000     0.000000
   13     1.000000   180.000000     0.000000     0.000000     1.000000     0.000000     0.000000     0.000000
   14    -1.000000   180.000000     0.000000     0.000000     1.000000     0.000000     0.000000     0.000000
   15     1.000000   120.000000    -0.577350     0.577350     0.577350     0.000000     0.000000     0.000000
   16    -1.000000   120.000000    -0.577350     0.577350     0.577350     0.000000     0.000000     0.000000
   17     1.000000   120.000000    -0.577350     0.577350    -0.577350     0.000000     0.000000     0.000000
   18    -1.000000   120.000000    -0.577350     0.577350    -0.577350     0.000000     0.000000     0.000000
   19     1.000000    90.000000     0.000000     0.000000     1.000000     0.000000     0.000000     0.000000
   20    -1.000000    90.000000     0.000000     0.000000     1.000000     0.000000     0.000000     0.000000
   21     1.000000    90.000000    -1.000000     0.000000     0.000000     0.000000     0.000000     0.000000
   22    -1.000000    90.000000    -1.000000     0.000000     0.000000     0.000000     0.000000     0.000000
   23     1.000000   180.000000     0.707107     0.000000     0.707107     0.000000     0.000000     0.000000
   24    -1.000000   180.000000     0.707107     0.000000     0.707107     0.000000     0.000000     0.000000
   25     1.000000   120.000000     0.577350    -0.577350     0.577350     0.000000     0.000000     0.000000
   26    -1.000000   120.000000     0.577350    -0.577350     0.577350     0.000000     0.000000     0.000000
   27     1.000000   120.000000    -0.577350    -0.577350     0.577350     0.000000     0.000000     0.000000
   28    -1.000000   120.000000    -0.577350    -0.577350     0.577350     0.000000     0.000000     0.000000
   29     1.000000   180.000000     1.000000     0.000000     0.000000     0.000000     0.000000     0.000000
   30    -1.000000   180.000000     1.000000     0.000000     0.000000     0.000000     0.000000     0.000000
   31     1.000000    90.000000     0.000000    -1.000000     0.000000     0.000000     0.000000     0.000000
   32    -1.000000    90.000000     0.000000    -1.000000     0.000000     0.000000     0.000000     0.000000
   33     1.000000   180.000000     0.707107     0.707107     0.000000     0.000000     0.000000     0.000000
   34    -1.000000   180.000000     0.707107     0.707107     0.000000     0.000000     0.000000     0.000000
   35     1.000000    90.000000     1.000000     0.000000     0.000000     0.000000     0.000000     0.000000
   36    -1.000000    90.000000     1.000000     0.000000     0.000000     0.000000     0.000000     0.000000
   37     1.000000   120.000000     0.577350    -0.577350    -0.577350     0.000000     0.000000     0.000000
   38    -1.000000   120.000000     0.577350    -0.577350    -0.577350     0.000000     0.000000     0.000000
   39     1.000000   180.000000     0.000000     1.000000     0.000000     0.000000     0.000000     0.000000
   40    -1.000000   180.000000     0.000000     1.000000     0.000000     0.000000     0.000000     0.000000
   41     1.000000   120.000000     0.577350     0.577350    -0.577350     0.000000     0.000000     0.000000
   42    -1.000000   120.000000     0.577350     0.577350    -0.577350     0.000000     0.000000     0.000000
   43     1.000000   180.000000     0.000000    -0.707107     0.707107     0.000000     0.000000     0.000000
   44    -1.000000   180.000000     0.000000    -0.707107     0.707107     0.000000     0.000000     0.000000
   45     1.000000   180.000000     0.707107    -0.707107     0.000000     0.000000     0.000000     0.000000
   46    -1.000000   180.000000     0.707107    -0.707107     0.000000     0.000000     0.000000     0.000000
   47     1.000000   180.000000     0.707107     0.000000    -0.707107     0.000000     0.000000     0.000000
   48    -1.000000   180.000000     0.707107     0.000000    -0.707107     0.000000     0.000000     0.000000
 
 Subroutine IBZKPT returns following result:
 ===========================================
 
 Found     10 irreducible k-points:
 
 Following reciprocal coordinates:
            Coordinates               Weight
  0.000000  0.000000  0.000000      1.000000
  0.250000  0.000000  0.000000      6.000000
  0.500000  0.000000  0.000000      3.000000
  0.250000  0.250000  0.000000     12.000000
  0.500000  0.250000  0.000000     12.000000
  0.500000  0.500000  0.000000      3.000000
  0.250000  0.250000  0.250000      8.000000
  0.500000  0.250000  0.250000     12.000000
  0.500000  0.500000  0.250000      6.000000
  0.500000  0.500000  0.500000      1.000000
 
 Following cartesian coordinates:
            Coordinates               Weight
  0.000000  0.000000  0.000000      1.000000
  0.250000  0.000000  0.000000      6.000000
  0.500000  0.000000  0.000000      3.000000
  0.250000  0.250000  0.000000     12.000000
  0.500000  0.250000  0.000000     12.000000
  0.500000  0.500000  0.000000      3.000000
  0.250000  0.250000  0.250000      8.000000
  0.500000  0.250000  0.250000     12.000000
  0.500000  0.500000  0.250000      6.000000
  0.500000  0.500000  0.500000      1.000000
 


--------------------------------------------------------------------------------------------------------




 Dimension of arrays:
   k-points           NKPTS =     10   k-points in BZ     NKDIM =     10   number of bands    NBANDS=     20
   number of dos      NEDOS =    301   number of ions     NIONS =      5
   non local maximal  LDIM  =      6   non local SUM 2l+1 LMDIM =     18
   total plane-waves  NPLWV =  32768
   max r-space proj   IRMAX =   9211   max aug-charges    IRDMAX=  35112
   dimension x,y,z NGX =    32 NGY =   32 NGZ =   32
   dimension x,y,z NGXF=    64 NGYF=   64 NGZF=   64
   support grid    NGXF=    64 NGYF=   64 NGZF=   64
   ions per type =               1   1   3
   NGX,Y,Z   is equivalent  to a cutoff of  13.83, 13.83, 13.83 a.u.
   NGXF,Y,Z  is equivalent  to a cutoff of  27.66, 27.66, 27.66 a.u.

 SYSTEM =  unknown system                          
 POSCAR =  Sr V O                                  

 Startparameter for this run:
   NWRITE =      2    write-flag & timer
   PREC   = accura    normal or accurate (medium, high low for compatibility)
   ISTART =      0    job   : 0-new  1-cont  2-samecut
   ICHARG =      2    charge: 1-file 2-atom 10-const
   ISPIN  =      1    spin polarized calculation?
   LNONCOLLINEAR =      F non collinear calculations
   LSORBIT =      F    spin-orbit coupling
   INIWAV =      1    electr: 0-lowe 1-rand  2-diag
   LASPH  =      F    aspherical Exc in radial PAW
   METAGGA=      F    non-selfconsistent MetaGGA calc.

 Electronic Relaxation 1
   ENCUT  =  600.0 eV  44.10 Ry    6.64 a.u.   7.68  7.68  7.68*2*pi/ulx,y,z
   ENINI  =  600.0     initial cutoff
   ENAUG  =  605.4 eV  augmentation charge cutoff
   NELM   =    100;   NELMIN=  2; NELMDL=  0     # of ELM steps 
   EDIFF  = 0.1E-07   stopping-criterion for ELM
   LREAL  =      T    real-space projection
   NLSPLINE    = F    spline interpolate recip. space projectors
   LCOMPAT=      F    compatible to vasp.4.4
   GGA_COMPAT  = T    GGA compatible to vasp.4.4-vasp.4.6
   LMAXPAW     = -100 max onsite density
   LMAXMIX     =    6 max onsite mixed and CHGCAR
   VOSKOWN=      0    Vosko Wilk Nusair interpolation
   ROPT   =   -0.00025  -0.00025  -0.00025
 Ionic relaxation
   EDIFFG = -.1E-02   stopping-criterion for IOM
   NSW    =    100    number of steps for IOM
   NBLOCK =      1;   KBLOCK =    100    inner block; outer block 
   IBRION =      2    ionic relax: 0-MD 1-quasi-New 2-CG
   NFREE  =      1    steps in history (QN), initial steepest desc. (CG)
   ISIF   =      3    stress and relaxation
   IWAVPR =     11    prediction:  0-non 1-charg 2-wave 3-comb
   ISYM   =      2    0-nonsym 1-usesym 2-fastsym
   LCORR  =      T    Harris-Foulkes like correction to forces

   POTIM  = 0.5000    time-step for ionic-motion
   TEIN   =    0.0    initial temperature
   TEBEG  =    0.0;   TEEND  =   0.0 temperature during run
   SMASS  =  -3.00    Nose mass-parameter (am)
   estimated Nose-frequenzy (Omega)   =  0.10E-29 period in steps =****** mass=  -0.338E-27a.u.
   SCALEE = 1.0000    scale energy and forces
   NPACO  =    256;   APACO  = 16.0  distance and # of slots for P.C.
   PSTRESS=    0.0 pullay stress

  Mass of Ions in am
   POMASS =  87.62 50.94 16.00
  Ionic Valenz
   ZVAL   =  10.00  5.00  6.00
  Atomic Wigner-Seitz radii
   RWIGS  =  -1.00 -1.00 -1.00
  virtual crystal weights 
   VCA    =   1.00  1.00  1.00
   NELECT =      33.0000    total number of electrons
   NUPDOWN=      -1.0000    fix difference up-down

 DOS related values:
   EMIN   =  10.00;   EMAX   =-10.00  energy-range for DOS
   EFERMI =   0.00
   ISMEAR =     1;   SIGMA  =   0.05  broadening in eV -4-tet -1-fermi 0-gaus

 Electronic relaxation 2 (details)
   IALGO  =     68    algorithm
   LDIAG  =      T    sub-space diagonalisation (order eigenvalues)
   LSUBROT=      F    optimize rotation matrix (better conditioning)
   TURBO    =      0    0=normal 1=particle mesh
   IRESTART =      0    0=no restart 2=restart with 2 vectors
   NREBOOT  =      0    no. of reboots
   NMIN     =      0    reboot dimension
   EREF     =   0.00    reference energy to select bands
   IMIX   =      4    mixing-type and parameters
     AMIX     =   0.40;   BMIX     =  1.00
     AMIX_MAG =   1.60;   BMIX_MAG =  1.00
     AMIN     =   0.10
     WC   =   100.;   INIMIX=   1;  MIXPRE=   1;  MAXMIX= -45

 Intra band minimization:
   WEIMIN = 0.0010     energy-eigenvalue tresh-hold
   EBREAK =  0.13E-09  absolut break condition
   DEPER  =   0.30     relativ break condition  

   TIME   =   0.40     timestep for ELM

  volume/ion in A,a.u.               =      11.38        76.81
  Fermi-wavevector in a.u.,A,eV,Ry     =   1.365143  2.579746 25.356027  1.863615
  Thomas-Fermi vector in A             =   2.491397
 
 Write flags
   LWAVE        =      F    write WAVECAR
   LDOWNSAMPLE  =      F    k-point downsampling of WAVECAR
   LCHARG       =      T    write CHGCAR
   LVTOT        =      F    write LOCPOT, total local potential
   LVHAR        =      F    write LOCPOT, Hartree potential only
   LELF         =      F    write electronic localiz. function (ELF)
   LORBIT       =     11    0 simple, 1 ext, 2 COOP (PROOUT), +10 PAW based schemes


 Dipole corrections
   LMONO  =      F    monopole corrections only (constant potential shift)
   LDIPOL =      F    correct potential (dipole corrections)
   IDIPOL =      0    1-x, 2-y, 3-z, 4-all directions 
   EPSILON=  1.0000000 bulk dielectric constant

 Exchange correlation treatment:
   GGA     =    --    GGA type
   LEXCH   =     2    internal setting for exchange type
   VOSKOWN=      0    Vosko Wilk Nusair interpolation
   LHFCALC =     F    Hartree Fock is set to
   LHFONE  =     F    Hartree Fock one center treatment
   AEXX    =    0.0000 exact exchange contribution

 Linear response parameters
   LEPSILON=     F    determine dielectric tensor
   LRPA    =     F    only Hartree local field effects (RPA)
   LNABLA  =     F    use nabla operator in PAW spheres
   LVEL    =     F    velocity operator in full k-point grid
   LINTERFAST=   F  fast interpolation
   KINTER  =     0    interpolate to denser k-point grid
   CSHIFT  =0.1000    complex shift for real part using Kramers Kronig
   OMEGAMAX=  -1.0    maximum frequency
   DEG_THRESHOLD= 0.2000000E-02 threshold for treating states as degnerate
   RTIME   =   -0.100 relaxation time in fs
  (WPLASMAI=    0.000 imaginary part of plasma frequency in eV, 0.658/RTIME)
   DFIELD  = 0.0000000 0.0000000 0.0000000 field for delta impulse in time
 
 Orbital magnetization related:
   ORBITALMAG=     F  switch on orbital magnetization
   LCHIMAG   =     F  perturbation theory with respect to B field
   DQ        =  0.001000  dq finite difference perturbation B field
   LLRAUG    =     F  two centre corrections for induced B field



--------------------------------------------------------------------------------------------------------


 conjugate gradient relaxation of ions
 charge density and potential will be updated during run
 non-spin polarized calculation
 RMM-DIIS sequential band-by-band and
  variant of blocked Davidson during initial phase
 perform sub-space diagonalisation
    before iterative eigenvector-optimisation
 modified Broyden-mixing scheme, WC =      100.0
 initial mixing is a Kerker type mixing with AMIX =  0.4000 and BMIX =      1.0000
 Hartree-type preconditioning will be used
 using additional bands            3
 real space projection scheme for non local part
 use partial core corrections
 calculate Harris-corrections to forces 
   (improved forces if not selfconsistent)
 use of overlap-Matrix (Vanderbilt PP)
 Methfessel and Paxton  Order N= 1 SIGMA  =   0.05


--------------------------------------------------------------------------------------------------------


  energy-cutoff  :      600.00
  volume of cell :       56.91
      direct lattice vectors                 reciprocal lattice vectors
     3.846520000  0.000000000  0.000000000     0.259975250  0.000000000  0.000000000
     0.000000000  3.846520000  0.000000000     0.000000000  0.259975250  0.000000000
     0.000000000  0.000000000  3.846520000     0.000000000  0.000000000  0.259975250

  length of vectors
     3.846520000  3.846520000  3.846520000     0.259975250  0.259975250  0.259975250


 
 k-points in units of 2pi/SCALE and weight: coord.13.02                             
   0.00000000  0.00000000  0.00000000       0.016
   0.25000000  0.00000000  0.00000000       0.094
   0.50000000  0.00000000  0.00000000       0.047
   0.25000000  0.25000000  0.00000000       0.188
   0.50000000  0.25000000  0.00000000       0.188
   0.50000000  0.50000000  0.00000000       0.047
   0.25000000  0.25000000  0.25000000       0.125
   0.50000000  0.25000000  0.25000000       0.188
   0.50000000  0.50000000  0.25000000       0.094
   0.50000000  0.50000000  0.50000000       0.016
 
 k-points in reciprocal lattice and weights: coord.13.02                             
   0.00000000  0.00000000  0.00000000       0.016
   0.25000000  0.00000000  0.00000000       0.094
   0.50000000  0.00000000  0.00000000       0.047
   0.25000000  0.25000000  0.00000000       0.188
   0.50000000  0.25000000  0.00000000       0.188
   0.50000000  0.50000000  0.00000000       0.047
   0.25000000  0.25000000  0.25000000       0.125
   0.50000000  0.25000000  0.25000000       0.188
   0.50000000  0.50000000  0.25000000       0.094
   0.50000000  0.50000000  0.50000000       0.016
 
 position of ions in fractional coordinates (direct lattice) 
   0.00000000  0.00000000  0.00000000
   0.50000000  0.50000000  0.50000000
   0.50000000  0.50000000  0.00000000
   0.50000000  0.00000000  0.50000000
   0.00000000  0.50000000  0.50000000
 
 position of ions in cartesian coordinates  (Angst):
   0.00000000  0.00000000  0.00000000
   1.92326000  1.92326000  1.92326000
   1.92326000  1.92326000  0.00000000
   1.92326000  0.00000000  1.92326000
   0.00000000  1.92326000  1.92326000
 


--------------------------------------------------------------------------------------------------------


 k-point  1 :   0.0000 0.0000 0.0000  plane waves:    1935
 k-point  2 :   0.2500 0.0000 0.0000  plane waves:    1891
 k-point  3 :   0.5000 0.0000 0.0000  plane waves:    1888
 k-point  4 :   0.2500 0.2500 0.0000  plane waves:    1893
 k-point  5 :   0.5000 0.2500 0.0000  plane waves:    1914
 k-point  6 :   0.5000 0.5000 0.0000  plane waves:    1924
 k-point  7 :   0.2500 0.2500 0.2500  plane waves:    1899
 k-point  8 :   0.5000 0.2500 0.2500  plane waves:    1894
 k-point  9 :   0.5000 0.5000 0.2500  plane waves:    1876
 k-point 10 :   0.5000 0.5000 0.5000  plane waves:    1904

 maximum and minimum number of plane-waves per node :      1935     1876

 maximum number of plane-waves:      1935
 maximum index in each direction: 
   IXMAX=    7   IYMAX=    7   IZMAX=    7
   IXMIN=   -8   IYMIN=   -8   IZMIN=   -8


 serial   3D FFT for wavefunctions
 parallel 3D FFT for charge:
    minimum data exchange during FFTs selected (reduces bandwidth)


 total amount of memory used by VASP MPI-rank0    44095. kBytes
=======================================================================

   base      :      30000. kBytes
   nonlr-proj:       4402. kBytes
   fftplans  :       2401. kBytes
   grid      :       5619. kBytes
   one-center:         77. kBytes
   wavefun   :       1596. kBytes
 
     INWAV:  cpu time    0.0000: real time    0.0000
 Broyden mixing: mesh for mixing (old mesh)
   NGX = 15   NGY = 15   NGZ = 15
  (NGX  = 64   NGY  = 64   NGZ  = 64)
  gives a total of   3375 points

 initial charge density was supplied:
 charge density of overlapping atoms calculated
 number of electron      33.0000000 magnetization 
 keeping initial charge density in first step


--------------------------------------------------------------------------------------------------------


 Maximum index for non-local projection operator         8925
 Maximum index for augmentation-charges         8379 (set IRDMAX)


--------------------------------------------------------------------------------------------------------


 First call to EWALD:  gamma=   0.461
 Maximum number of real-space cells 3x 3x 3
 Maximum number of reciprocal cells 3x 3x 3

    FEWALD:  cpu time    0.0012: real time    0.0012


--------------------------------------- Iteration      1(   1)  ---------------------------------------


    POTLOK:  cpu time    0.0107: real time    0.0107
    SETDIJ:  cpu time    0.0060: real time    0.0060
     EDDAV:  cpu time    0.4340: real time    0.4360
       DOS:  cpu time    0.0002: real time    0.0002
    --------------------------------------------
      LOOP:  cpu time    0.4509: real time    0.4530

 eigenvalue-minimisations  :   408
 total energy-change (2. order) : 0.3870995E+03  (-0.1726536E+04)
 number of electron      33.0000000 magnetization 
 augmentation part       33.0000000 magnetization 

 Free energy of the ion-electron system (eV)
  ---------------------------------------------------
  alpha Z        PSCENC =       180.95685896
  Ewald energy   TEWEN  =     -2047.90029510
  -Hartree energ DENC   =      -397.98094314
  -exchange      EXHF   =         0.00000000
  -V(xc)+E(xc)   XCENC  =        75.59931925
  PAW double counting   =      1872.70433278    -1818.70074873
  entropy T*S    EENTRO =        -0.00141616
  eigenvalues    EBANDS =       210.13786926
  atomic energy  EATOM  =      2312.28455477
  Solvation  Ediel_sol  =         0.00000000
  ---------------------------------------------------
  free energy    TOTEN  =       387.09953188 eV

  energy without entropy =      387.10094804  energy(sigma->0) =      387.10000393


--------------------------------------------------------------------------------------------------------




--------------------------------------- Iteration      1(   2)  ---------------------------------------


     EDDAV:  cpu time    0.4442: real time    0.4481
       DOS:  cpu time    0.0002: real time    0.0002
    --------------------------------------------
      LOOP:  cpu time    0.4444: real time    0.4483

 eigenvalue-minimisations  :   428
 total energy-change (2. order) :-0.3607336E+03  (-0.3396083E+03)
 number of electron      33.0000000 magnetization 
 augmentation part       33.0000000 magnetization 

 Free energy of the ion-electron system (eV)
  ---------------------------------------------------
  alpha Z        PSCENC =       180.95685896
  Ewald energy   TEWEN  =     -2047.90029510
  -Hartree energ DENC   =      -397.98094314
  -exchange      EXHF   =         0.00000000
  -V(xc)+E(xc)   XCENC  =        75.59931925
  PAW double counting   =      1872.70433278    -1818.70074873
  entropy T*S    EENTRO =        -0.00103782
  eigenvalues    EBANDS =      -150.59611773
  atomic energy  EATOM  =      2312.28455477
  Solvation  Ediel_sol  =         0.00000000
  ---------------------------------------------------
  free energy    TOTEN  =        26.36592323 eV

  energy without entropy =       26.36696105  energy(sigma->0) =       26.36626917


--------------------------------------------------------------------------------------------------------




--------------------------------------- Iteration      1(   3)  ---------------------------------------


     EDDAV:  cpu time    0.6228: real time    0.6278
       DOS:  cpu time    0.0002: real time    0.0002
    --------------------------------------------
      LOOP:  cpu time    0.6230: real time    0.6280

 eigenvalue-minimisations  :   632
 total energy-change (2. order) :-0.7563718E+02  (-0.7276236E+02)
 number of electron      33.0000000 magnetization 
 augmentation part       33.0000000 magnetization 

 Free energy of the ion-electron system (eV)
  ---------------------------------------------------
  alpha Z        PSCENC =       180.95685896
  Ewald energy   TEWEN  =     -2047.90029510
  -Hartree energ DENC   =      -397.98094314
  -exchange      EXHF   =         0.00000000
  -V(xc)+E(xc)   XCENC  =        75.59931925
  PAW double counting   =      1872.70433278    -1818.70074873
  entropy T*S    EENTRO =        -0.00134390
  eigenvalues    EBANDS =      -226.23298954
  atomic energy  EATOM  =      2312.28455477
  Solvation  Ediel_sol  =         0.00000000
  ---------------------------------------------------
  free energy    TOTEN  =       -49.27125466 eV

  energy without entropy =      -49.26991076  energy(sigma->0) =      -49.27080669


--------------------------------------------------------------------------------------------------------




--------------------------------------- Iteration      1(   4)  ---------------------------------------


     EDDAV:  cpu time    0.5820: real time    0.5876
       DOS:  cpu time    0.0002: real time    0.0002
    --------------------------------------------
      LOOP:  cpu time    0.5822: real time    0.5879

 eigenvalue-minimisations  :   572
 total energy-change (2. order) :-0.4138048E+01  (-0.4054609E+01)
 number of electron      33.0000000 magnetization 
 augmentation part       33.0000000 magnetization 

 Free energy of the ion-electron system (eV)
  ---------------------------------------------------
  alpha Z        PSCENC =       180.95685896
  Ewald energy   TEWEN  =     -2047.90029510
  -Hartree energ DENC   =      -397.98094314
  -exchange      EXHF   =         0.00000000
  -V(xc)+E(xc)   XCENC  =        75.59931925
  PAW double counting   =      1872.70433278    -1818.70074873
  entropy T*S    EENTRO =         0.00057707
  eigenvalues    EBANDS =      -230.37295820
  atomic energy  EATOM  =      2312.28455477
  Solvation  Ediel_sol  =         0.00000000
  ---------------------------------------------------
  free energy    TOTEN  =       -53.40930235 eV

  energy without entropy =      -53.40987942  energy(sigma->0) =      -53.40949470


--------------------------------------------------------------------------------------------------------




--------------------------------------- Iteration      1(   5)  ---------------------------------------


     EDDAV:  cpu time    0.6373: real time    0.6417
       DOS:  cpu time    0.0002: real time    0.0002
    CHARGE:  cpu time    0.0214: real time    0.0215
    MIXING:  cpu time    0.0012: real time    0.0012
    --------------------------------------------
      LOOP:  cpu time    0.6601: real time    0.6646

 eigenvalue-minimisations  :   644
 total energy-change (2. order) :-0.1796433E+00  (-0.1692873E+00)
 number of electron      32.9999996 magnetization 
 augmentation part        3.9748103 magnetization 

 Broyden mixing:
  rms(total) = 0.38292E+01    rms(broyden)= 0.38291E+01
  rms(prec ) = 0.59968E+01
  weight for this iteration     100.00

 Free energy of the ion-electron system (eV)
  ---------------------------------------------------
  alpha Z        PSCENC =       180.95685896
  Ewald energy   TEWEN  =     -2047.90029510
  -Hartree energ DENC   =      -397.98094314
  -exchange      EXHF   =         0.00000000
  -V(xc)+E(xc)   XCENC  =        75.59931925
  PAW double counting   =      1872.70433278    -1818.70074873
  entropy T*S    EENTRO =        -0.00114485
  eigenvalues    EBANDS =      -230.55087956
  atomic energy  EATOM  =      2312.28455477
  Solvation  Ediel_sol  =         0.00000000
  ---------------------------------------------------
  free energy    TOTEN  =       -53.58894563 eV

  energy without entropy =      -53.58780078  energy(sigma->0) =      -53.58856401


--------------------------------------------------------------------------------------------------------




--------------------------------------- Iteration      1(   6)  ---------------------------------------


    POTLOK:  cpu time    0.0092: real time    0.0093
    SETDIJ:  cpu time    0.0055: real time    0.0055
    EDDIAG:  cpu time    0.0316: real time    0.0316
  RMM-DIIS:  cpu time    0.3413: real time    0.3460
    ORTHCH:  cpu time    0.0024: real time    0.0026
       DOS:  cpu time    0.0002: real time    0.0002
    CHARGE:  cpu time    0.0200: real time    0.0200
    MIXING:  cpu time    0.0013: real time    0.0013
    --------------------------------------------
      LOOP:  cpu time    0.4115: real time    0.4165

 eigenvalue-minimisations  :   481
 total energy-change (2. order) : 0.8872845E+01  (-0.6947978E+01)
 number of electron      32.9999998 magnetization 
 augmentation part        4.8599769 magnetization 

 Broyden mixing:
  rms(total) = 0.14903E+01    rms(broyden)= 0.14901E+01
  rms(prec ) = 0.25442E+01
  weight for this iteration     100.00

 eigenvalues of (default mixing * dielectric matrix)
  average eigenvalue GAMMA=   0.9094
  0.9094

 Free energy of the ion-electron system (eV)
  ---------------------------------------------------
  alpha Z        PSCENC =       180.95685896
  Ewald energy   TEWEN  =     -2047.90029510
  -Hartree energ DENC   =      -440.30634142
  -exchange      EXHF   =         0.00000000
  -V(xc)+E(xc)   XCENC  =        79.91737569
  PAW double counting   =      2554.38039034    -2503.12408079
  entropy T*S    EENTRO =         0.00022719
  eigenvalues    EBANDS =      -180.92479056
  atomic energy  EATOM  =      2312.28455477
  Solvation  Ediel_sol  =         0.00000000
  ---------------------------------------------------
  free energy    TOTEN  =       -44.71610093 eV

  energy without entropy =      -44.71632812  energy(sigma->0) =      -44.71617666


--------------------------------------------------------------------------------------------------------




--------------------------------------- Iteration      1(   7)  ---------------------------------------


    POTLOK:  cpu time    0.0090: real time    0.0090
    SETDIJ:  cpu time    0.0056: real time    0.0056
    EDDIAG:  cpu time    0.0315: real time    0.0315
  RMM-DIIS:  cpu time    0.3668: real time    0.3716
    ORTHCH:  cpu time    0.0025: real time    0.0025
       DOS:  cpu time    0.0002: real time    0.0002
    CHARGE:  cpu time    0.0240: real time    0.0240
    MIXING:  cpu time    0.0013: real time    0.0013
    --------------------------------------------
      LOOP:  cpu time    0.4409: real time    0.4457

 eigenvalue-minimisations  :   513
 total energy-change (2. order) : 0.1114497E+01  (-0.9209241E+00)
 number of electron      32.9999997 magnetization 
 augmentation part        4.0913966 magnetization 

 Broyden mixing:
  rms(total) = 0.13798E+01    rms(broyden)= 0.13798E+01
  rms(prec ) = 0.17469E+01
  weight for this iteration     100.00

 eigenvalues of (default mixing * dielectric matrix)
  average eigenvalue GAMMA=   1.5541
  2.4862  0.6220

 Free energy of the ion-electron system (eV)
  ---------------------------------------------------
  alpha Z        PSCENC =       180.95685896
  Ewald energy   TEWEN  =     -2047.90029510
  -Hartree energ DENC   =      -426.60975489
  -exchange      EXHF   =         0.00000000
  -V(xc)+E(xc)   XCENC  =        78.53820113
  PAW double counting   =      2909.27721368    -2860.56404182
  entropy T*S    EENTRO =         0.00030500
  eigenvalues    EBANDS =      -189.58464544
  atomic energy  EATOM  =      2312.28455477
  Solvation  Ediel_sol  =         0.00000000
  ---------------------------------------------------
  free energy    TOTEN  =       -43.60160372 eV

  energy without entropy =      -43.60190871  energy(sigma->0) =      -43.60170538


--------------------------------------------------------------------------------------------------------




--------------------------------------- Iteration      1(   8)  ---------------------------------------


    POTLOK:  cpu time    0.0090: real time    0.0091
    SETDIJ:  cpu time    0.0055: real time    0.0055
    EDDIAG:  cpu time    0.0315: real time    0.0315
  RMM-DIIS:  cpu time    0.3514: real time    0.3567
    ORTHCH:  cpu time    0.0024: real time    0.0024
       DOS:  cpu time    0.0002: real time    0.0002
    CHARGE:  cpu time    0.0244: real time    0.0244
    MIXING:  cpu time    0.0012: real time    0.0012
    --------------------------------------------
      LOOP:  cpu time    0.4257: real time    0.4310

 eigenvalue-minimisations  :   487
 total energy-change (2. order) : 0.3671857E+00  (-0.2298941E+00)
 number of electron      32.9999998 magnetization 
 augmentation part        4.3110298 magnetization 

 Broyden mixing:
  rms(total) = 0.42776E+00    rms(broyden)= 0.42775E+00
  rms(prec ) = 0.48161E+00
  weight for this iteration     100.00

 eigenvalues of (default mixing * dielectric matrix)
  average eigenvalue GAMMA=   1.2650
  1.8826  1.3539  0.5585

 Free energy of the ion-electron system (eV)
  ---------------------------------------------------
  alpha Z        PSCENC =       180.95685896
  Ewald energy   TEWEN  =     -2047.90029510
  -Hartree energ DENC   =      -424.88579523
  -exchange      EXHF   =         0.00000000
  -V(xc)+E(xc)   XCENC  =        78.68238678
  PAW double counting   =      3545.12911131    -3497.81738237
  entropy T*S    EENTRO =        -0.00229436
  eigenvalues    EBANDS =      -189.68156279
  atomic energy  EATOM  =      2312.28455477
  Solvation  Ediel_sol  =         0.00000000
  ---------------------------------------------------
  free energy    TOTEN  =       -43.23441804 eV

  energy without entropy =      -43.23212369  energy(sigma->0) =      -43.23365326


--------------------------------------------------------------------------------------------------------




--------------------------------------- Iteration      1(   9)  ---------------------------------------


    POTLOK:  cpu time    0.0090: real time    0.0090
    SETDIJ:  cpu time    0.0055: real time    0.0055
    EDDIAG:  cpu time    0.0313: real time    0.0315
  RMM-DIIS:  cpu time    0.4046: real time    0.4098
    ORTHCH:  cpu time    0.0035: real time    0.0035
       DOS:  cpu time    0.0002: real time    0.0002
    CHARGE:  cpu time    0.0253: real time    0.0253
    MIXING:  cpu time    0.0013: real time    0.0012
    --------------------------------------------
      LOOP:  cpu time    0.4806: real time    0.4861

 eigenvalue-minimisations  :   574
 total energy-change (2. order) :-0.2593735E-01  (-0.7312675E-01)
 number of electron      32.9999998 magnetization 
 augmentation part        4.3027734 magnetization 

 Broyden mixing:
  rms(total) = 0.76849E-01    rms(broyden)= 0.76785E-01
  rms(prec ) = 0.11657E+00
  weight for this iteration     100.00

 eigenvalues of (default mixing * dielectric matrix)
  average eigenvalue GAMMA=   1.3173
  2.3288  0.5544  1.1929  1.1929

 Free energy of the ion-electron system (eV)
  ---------------------------------------------------
  alpha Z        PSCENC =       180.95685896
  Ewald energy   TEWEN  =     -2047.90029510
  -Hartree energ DENC   =      -421.23720865
  -exchange      EXHF   =         0.00000000
  -V(xc)+E(xc)   XCENC  =        78.44503478
  PAW double counting   =      3906.09572180    -3859.70482195
  entropy T*S    EENTRO =        -0.00234386
  eigenvalues    EBANDS =      -192.19785613
  atomic energy  EATOM  =      2312.28455477
  Solvation  Ediel_sol  =         0.00000000
  ---------------------------------------------------
  free energy    TOTEN  =       -43.26035539 eV

  energy without entropy =      -43.25801153  energy(sigma->0) =      -43.25957410


--------------------------------------------------------------------------------------------------------




--------------------------------------- Iteration      1(  10)  ---------------------------------------


    POTLOK:  cpu time    0.0090: real time    0.0091
    SETDIJ:  cpu time    0.0055: real time    0.0055
    EDDIAG:  cpu time    0.0314: real time    0.0316
  RMM-DIIS:  cpu time    0.3693: real time    0.3749
    ORTHCH:  cpu time    0.0034: real time    0.0034
       DOS:  cpu time    0.0003: real time    0.0003
    CHARGE:  cpu time    0.0231: real time    0.0231
    MIXING:  cpu time    0.0014: real time    0.0014
    --------------------------------------------
      LOOP:  cpu time    0.4433: real time    0.4492

 eigenvalue-minimisations  :   546
 total energy-change (2. order) : 0.3607645E-02  (-0.4654793E-02)
 number of electron      32.9999998 magnetization 
 augmentation part        4.2770664 magnetization 

 Broyden mixing:
  rms(total) = 0.28541E-01    rms(broyden)= 0.28537E-01
  rms(prec ) = 0.39345E-01
  weight for this iteration     100.00

 eigenvalues of (default mixing * dielectric matrix)
  average eigenvalue GAMMA=   1.4051
  2.5567  1.7715  0.5578  1.0698  1.0698

 Free energy of the ion-electron system (eV)
  ---------------------------------------------------
  alpha Z        PSCENC =       180.95685896
  Ewald energy   TEWEN  =     -2047.90029510
  -Hartree energ DENC   =      -421.99093118
  -exchange      EXHF   =         0.00000000
  -V(xc)+E(xc)   XCENC  =        78.49285056
  PAW double counting   =      3951.03898959    -3904.84757874
  entropy T*S    EENTRO =        -0.00233042
  eigenvalues    EBANDS =      -191.28886616
  atomic energy  EATOM  =      2312.28455477
  Solvation  Ediel_sol  =         0.00000000
  ---------------------------------------------------
  free energy    TOTEN  =       -43.25674774 eV

  energy without entropy =      -43.25441732  energy(sigma->0) =      -43.25597094


--------------------------------------------------------------------------------------------------------




--------------------------------------- Iteration      1(  11)  ---------------------------------------


    POTLOK:  cpu time    0.0090: real time    0.0090
    SETDIJ:  cpu time    0.0055: real time    0.0055
    EDDIAG:  cpu time    0.0314: real time    0.0314
  RMM-DIIS:  cpu time    0.4083: real time    0.4129
    ORTHCH:  cpu time    0.0025: real time    0.0025
       DOS:  cpu time    0.0002: real time    0.0002
    CHARGE:  cpu time    0.0249: real time    0.0249
    MIXING:  cpu time    0.0013: real time    0.0013
    --------------------------------------------
      LOOP:  cpu time    0.4831: real time    0.4877

 eigenvalue-minimisations  :   597
 total energy-change (2. order) :-0.1449628E-02  (-0.2101729E-02)
 number of electron      32.9999998 magnetization 
 augmentation part        4.2641012 magnetization 

 Broyden mixing:
  rms(total) = 0.16580E-01    rms(broyden)= 0.16578E-01
  rms(prec ) = 0.25554E-01
  weight for this iteration     100.00

 eigenvalues of (default mixing * dielectric matrix)
  average eigenvalue GAMMA=   1.3926
  2.6388  2.0292  0.5574  1.1267  1.1267  0.8768

 Free energy of the ion-electron system (eV)
  ---------------------------------------------------
  alpha Z        PSCENC =       180.95685896
  Ewald energy   TEWEN  =     -2047.90029510
  -Hartree energ DENC   =      -422.75113196
  -exchange      EXHF   =         0.00000000
  -V(xc)+E(xc)   XCENC  =        78.54146903
  PAW double counting   =      3939.89645693    -3893.63776771
  entropy T*S    EENTRO =        -0.00233036
  eigenvalues    EBANDS =      -190.64601192
  atomic energy  EATOM  =      2312.28455477
  Solvation  Ediel_sol  =         0.00000000
  ---------------------------------------------------
  free energy    TOTEN  =       -43.25819737 eV

  energy without entropy =      -43.25586701  energy(sigma->0) =      -43.25742059


--------------------------------------------------------------------------------------------------------




--------------------------------------- Iteration      1(  12)  ---------------------------------------


    POTLOK:  cpu time    0.0090: real time    0.0090
    SETDIJ:  cpu time    0.0056: real time    0.0056
    EDDIAG:  cpu time    0.0314: real time    0.0314
  RMM-DIIS:  cpu time    0.3958: real time    0.4001
    ORTHCH:  cpu time    0.0025: real time    0.0025
       DOS:  cpu time    0.0002: real time    0.0002
    CHARGE:  cpu time    0.0252: real time    0.0258
    MIXING:  cpu time    0.0015: real time    0.0015
    --------------------------------------------
      LOOP:  cpu time    0.4712: real time    0.4761

 eigenvalue-minimisations  :   585
 total energy-change (2. order) :-0.3696568E-03  (-0.7102166E-03)
 number of electron      32.9999998 magnetization 
 augmentation part        4.2618642 magnetization 

 Broyden mixing:
  rms(total) = 0.88471E-02    rms(broyden)= 0.88465E-02
  rms(prec ) = 0.18281E-01
  weight for this iteration     100.00

 eigenvalues of (default mixing * dielectric matrix)
  average eigenvalue GAMMA=   1.5432
  2.7885  2.7885  1.6028  0.5578  1.1217  1.1217  0.8214

 Free energy of the ion-electron system (eV)
  ---------------------------------------------------
  alpha Z        PSCENC =       180.95685896
  Ewald energy   TEWEN  =     -2047.90029510
  -Hartree energ DENC   =      -422.49077263
  -exchange      EXHF   =         0.00000000
  -V(xc)+E(xc)   XCENC  =        78.52078501
  PAW double counting   =      3941.57564058    -3895.24135642
  entropy T*S    EENTRO =        -0.00231009
  eigenvalues    EBANDS =      -190.96167211
  atomic energy  EATOM  =      2312.28455477
  Solvation  Ediel_sol  =         0.00000000
  ---------------------------------------------------
  free energy    TOTEN  =       -43.25856703 eV

  energy without entropy =      -43.25625694  energy(sigma->0) =      -43.25779700


--------------------------------------------------------------------------------------------------------




--------------------------------------- Iteration      1(  13)  ---------------------------------------


    POTLOK:  cpu time    0.0162: real time    0.0163
    SETDIJ:  cpu time    0.0058: real time    0.0058
    EDDIAG:  cpu time    0.0312: real time    0.0312
  RMM-DIIS:  cpu time    0.3686: real time    0.3727
    ORTHCH:  cpu time    0.0025: real time    0.0025
       DOS:  cpu time    0.0002: real time    0.0002
    CHARGE:  cpu time    0.0201: real time    0.0201
    MIXING:  cpu time    0.0014: real time    0.0014
    --------------------------------------------
      LOOP:  cpu time    0.4461: real time    0.4502

 eigenvalue-minimisations  :   553
 total energy-change (2. order) :-0.2153271E-03  (-0.3777839E-03)
 number of electron      32.9999998 magnetization 
 augmentation part        4.2667353 magnetization 

 Broyden mixing:
  rms(total) = 0.49054E-02    rms(broyden)= 0.49053E-02
  rms(prec ) = 0.95569E-02
  weight for this iteration     100.00

 eigenvalues of (default mixing * dielectric matrix)
  average eigenvalue GAMMA=   1.4791
  2.8426  2.8426  1.5510  0.5578  1.2152  0.9966  0.9135  0.9135

 Free energy of the ion-electron system (eV)
  ---------------------------------------------------
  alpha Z        PSCENC =       180.95685896
  Ewald energy   TEWEN  =     -2047.90029510
  -Hartree energ DENC   =      -422.37222322
  -exchange      EXHF   =         0.00000000
  -V(xc)+E(xc)   XCENC  =        78.51425552
  PAW double counting   =      3939.42287708    -3892.97419077
  entropy T*S    EENTRO =        -0.00233451
  eigenvalues    EBANDS =      -191.18828507
  atomic energy  EATOM  =      2312.28455477
  Solvation  Ediel_sol  =         0.00000000
  ---------------------------------------------------
  free energy    TOTEN  =       -43.25878236 eV

  energy without entropy =      -43.25644785  energy(sigma->0) =      -43.25800419


--------------------------------------------------------------------------------------------------------




--------------------------------------- Iteration      1(  14)  ---------------------------------------


    POTLOK:  cpu time    0.0091: real time    0.0091
    SETDIJ:  cpu time    0.0055: real time    0.0055
    EDDIAG:  cpu time    0.0375: real time    0.0382
  RMM-DIIS:  cpu time    0.3939: real time    0.3949
    ORTHCH:  cpu time    0.0046: real time    0.0068
       DOS:  cpu time    0.0002: real time    0.0002
    CHARGE:  cpu time    0.0196: real time    0.0196
    MIXING:  cpu time    0.0014: real time    0.0014
    --------------------------------------------
      LOOP:  cpu time    0.4719: real time    0.4757

 eigenvalue-minimisations  :   580
 total energy-change (2. order) :-0.1551636E-03  (-0.2186681E-03)
 number of electron      32.9999998 magnetization 
 augmentation part        4.2638203 magnetization 

 Broyden mixing:
  rms(total) = 0.48046E-02    rms(broyden)= 0.48046E-02
  rms(prec ) = 0.66864E-02
  weight for this iteration     100.00

 eigenvalues of (default mixing * dielectric matrix)
  average eigenvalue GAMMA=   1.4435
  2.7351  2.7351  1.3496  1.4405  0.5578  1.1934  0.9743  0.9743  1.0312

 Free energy of the ion-electron system (eV)
  ---------------------------------------------------
  alpha Z        PSCENC =       180.95685896
  Ewald energy   TEWEN  =     -2047.90029510
  -Hartree energ DENC   =      -422.45800682
  -exchange      EXHF   =         0.00000000
  -V(xc)+E(xc)   XCENC  =        78.51964830
  PAW double counting   =      3942.62099887    -3896.18964658
  entropy T*S    EENTRO =        -0.00232933
  eigenvalues    EBANDS =      -191.09072058
  atomic energy  EATOM  =      2312.28455477
  Solvation  Ediel_sol  =         0.00000000
  ---------------------------------------------------
  free energy    TOTEN  =       -43.25893752 eV

  energy without entropy =      -43.25660819  energy(sigma->0) =      -43.25816108


--------------------------------------------------------------------------------------------------------




--------------------------------------- Iteration      1(  15)  ---------------------------------------


    POTLOK:  cpu time    0.0090: real time    0.0090
    SETDIJ:  cpu time    0.0055: real time    0.0055
    EDDIAG:  cpu time    0.0380: real time    0.0380
  RMM-DIIS:  cpu time    0.4209: real time    0.4220
    ORTHCH:  cpu time    0.0044: real time    0.0068
       DOS:  cpu time    0.0002: real time    0.0002
    CHARGE:  cpu time    0.0196: real time    0.0196
    MIXING:  cpu time    0.0015: real time    0.0015
    --------------------------------------------
      LOOP:  cpu time    0.4990: real time    0.5027

 eigenvalue-minimisations  :   611
 total energy-change (2. order) :-0.1140012E-03  (-0.1178612E-03)
 number of electron      32.9999998 magnetization 
 augmentation part        4.2630092 magnetization 

 Broyden mixing:
  rms(total) = 0.54471E-02    rms(broyden)= 0.54471E-02
  rms(prec ) = 0.71933E-02
  weight for this iteration     100.00

 eigenvalues of (default mixing * dielectric matrix)
  average eigenvalue GAMMA=   1.3358
  2.3384  2.2602  1.4813  1.4813  1.4286  1.4286  0.9735  0.5578  0.7039  0.7039

 Free energy of the ion-electron system (eV)
  ---------------------------------------------------
  alpha Z        PSCENC =       180.95685896
  Ewald energy   TEWEN  =     -2047.90029510
  -Hartree energ DENC   =      -422.44849284
  -exchange      EXHF   =         0.00000000
  -V(xc)+E(xc)   XCENC  =        78.51906388
  PAW double counting   =      3942.13639250    -3895.71050418
  entropy T*S    EENTRO =        -0.00232899
  eigenvalues    EBANDS =      -191.09430051
  atomic energy  EATOM  =      2312.28455477
  Solvation  Ediel_sol  =         0.00000000
  ---------------------------------------------------
  free energy    TOTEN  =       -43.25905152 eV

  energy without entropy =      -43.25672253  energy(sigma->0) =      -43.25827519


--------------------------------------------------------------------------------------------------------




--------------------------------------- Iteration      1(  16)  ---------------------------------------


    POTLOK:  cpu time    0.0089: real time    0.0090
    SETDIJ:  cpu time    0.0055: real time    0.0055
    EDDIAG:  cpu time    0.0313: real time    0.0313
  RMM-DIIS:  cpu time    0.4009: real time    0.4027
    ORTHCH:  cpu time    0.0025: real time    0.0025
       DOS:  cpu time    0.0002: real time    0.0002
    CHARGE:  cpu time    0.0195: real time    0.0195
    MIXING:  cpu time    0.0016: real time    0.0016
    --------------------------------------------
      LOOP:  cpu time    0.4704: real time    0.4723

 eigenvalue-minimisations  :   568
 total energy-change (2. order) :-0.7351643E-04  (-0.9762814E-04)
 number of electron      32.9999998 magnetization 
 augmentation part        4.2617230 magnetization 

 Broyden mixing:
  rms(total) = 0.33028E-02    rms(broyden)= 0.33025E-02
  rms(prec ) = 0.62376E-02
  weight for this iteration     100.00

 eigenvalues of (default mixing * dielectric matrix)
  average eigenvalue GAMMA=   1.3530
  2.4520  2.4520  1.4022  1.4022  1.6113  1.6113  0.5578  1.2996  1.0127  0.8231
  0.2584

 Free energy of the ion-electron system (eV)
  ---------------------------------------------------
  alpha Z        PSCENC =       180.95685896
  Ewald energy   TEWEN  =     -2047.90029510
  -Hartree energ DENC   =      -422.54231899
  -exchange      EXHF   =         0.00000000
  -V(xc)+E(xc)   XCENC  =        78.52624117
  PAW double counting   =      3943.99431060    -3897.58350146
  entropy T*S    EENTRO =        -0.00233521
  eigenvalues    EBANDS =      -190.99263976
  atomic energy  EATOM  =      2312.28455477
  Solvation  Ediel_sol  =         0.00000000
  ---------------------------------------------------
  free energy    TOTEN  =       -43.25912504 eV

  energy without entropy =      -43.25678983  energy(sigma->0) =      -43.25834663


--------------------------------------------------------------------------------------------------------




--------------------------------------- Iteration      1(  17)  ---------------------------------------


    POTLOK:  cpu time    0.0091: real time    0.0121
    SETDIJ:  cpu time    0.0055: real time    0.0055
    EDDIAG:  cpu time    0.0313: real time    0.0313
  RMM-DIIS:  cpu time    0.4004: real time    0.4017
    ORTHCH:  cpu time    0.0025: real time    0.0026
       DOS:  cpu time    0.0002: real time    0.0002
    CHARGE:  cpu time    0.0199: real time    0.0199
    MIXING:  cpu time    0.0016: real time    0.0016
    --------------------------------------------
      LOOP:  cpu time    0.4705: real time    0.4750

 eigenvalue-minimisations  :   571
 total energy-change (2. order) :-0.3838117E-04  (-0.4472117E-04)
 number of electron      32.9999998 magnetization 
 augmentation part        4.2610874 magnetization 

 Broyden mixing:
  rms(total) = 0.30303E-02    rms(broyden)= 0.30303E-02
  rms(prec ) = 0.59313E-02
  weight for this iteration     100.00

 eigenvalues of (default mixing * dielectric matrix)
  average eigenvalue GAMMA=   1.4589
  3.0699  3.0699  2.4061  1.2954  1.2954  1.3799  1.3799  0.5579  0.9879  0.8625
  0.8625  0.3395

 Free energy of the ion-electron system (eV)
  ---------------------------------------------------
  alpha Z        PSCENC =       180.95685896
  Ewald energy   TEWEN  =     -2047.90029510
  -Hartree energ DENC   =      -422.54697907
  -exchange      EXHF   =         0.00000000
  -V(xc)+E(xc)   XCENC  =        78.52631814
  PAW double counting   =      3944.32230165    -3897.89990582
  entropy T*S    EENTRO =        -0.00233431
  eigenvalues    EBANDS =      -190.99968263
  atomic energy  EATOM  =      2312.28455477
  Solvation  Ediel_sol  =         0.00000000
  ---------------------------------------------------
  free energy    TOTEN  =       -43.25916342 eV

  energy without entropy =      -43.25682910  energy(sigma->0) =      -43.25838531


--------------------------------------------------------------------------------------------------------




--------------------------------------- Iteration      1(  18)  ---------------------------------------


    POTLOK:  cpu time    0.0089: real time    0.0090
    SETDIJ:  cpu time    0.0055: real time    0.0055
    EDDIAG:  cpu time    0.0333: real time    0.0358
  RMM-DIIS:  cpu time    0.4219: real time    0.4237
    ORTHCH:  cpu time    0.0027: real time    0.0027
       DOS:  cpu time    0.0002: real time    0.0002
    CHARGE:  cpu time    0.0232: real time    0.0232
    MIXING:  cpu time    0.0017: real time    0.0017
    --------------------------------------------
      LOOP:  cpu time    0.4973: real time    0.5017

 eigenvalue-minimisations  :   602
 total energy-change (2. order) :-0.2567927E-04  (-0.3134457E-04)
 number of electron      32.9999998 magnetization 
 augmentation part        4.2605233 magnetization 

 Broyden mixing:
  rms(total) = 0.26094E-02    rms(broyden)= 0.26094E-02
  rms(prec ) = 0.50868E-02
  weight for this iteration     100.00

 eigenvalues of (default mixing * dielectric matrix)
  average eigenvalue GAMMA=   1.4676
  3.3882  3.3882  2.4343  1.4311  1.4311  1.4307  1.4307  0.9584  0.9584  0.8613
  0.5579  0.4977  0.3107

 Free energy of the ion-electron system (eV)
  ---------------------------------------------------
  alpha Z        PSCENC =       180.95685896
  Ewald energy   TEWEN  =     -2047.90029510
  -Hartree energ DENC   =      -422.54795101
  -exchange      EXHF   =         0.00000000
  -V(xc)+E(xc)   XCENC  =        78.52616640
  PAW double counting   =      3944.61263889    -3898.17854197
  entropy T*S    EENTRO =        -0.00233340
  eigenvalues    EBANDS =      -191.01028662
  atomic energy  EATOM  =      2312.28455477
  Solvation  Ediel_sol  =         0.00000000
  ---------------------------------------------------
  free energy    TOTEN  =       -43.25918910 eV

  energy without entropy =      -43.25685570  energy(sigma->0) =      -43.25841130


--------------------------------------------------------------------------------------------------------




--------------------------------------- Iteration      1(  19)  ---------------------------------------


    POTLOK:  cpu time    0.0089: real time    0.0089
    SETDIJ:  cpu time    0.0055: real time    0.0055
    EDDIAG:  cpu time    0.0325: real time    0.0350
  RMM-DIIS:  cpu time    0.4105: real time    0.4120
    ORTHCH:  cpu time    0.0025: real time    0.0025
       DOS:  cpu time    0.0002: real time    0.0002
    CHARGE:  cpu time    0.0197: real time    0.0197
    MIXING:  cpu time    0.0017: real time    0.0017
    --------------------------------------------
      LOOP:  cpu time    0.4815: real time    0.4856

 eigenvalue-minimisations  :   597
 total energy-change (2. order) :-0.1305834E-04  (-0.1658276E-04)
 number of electron      32.9999998 magnetization 
 augmentation part        4.2602902 magnetization 

 Broyden mixing:
  rms(total) = 0.23738E-02    rms(broyden)= 0.23738E-02
  rms(prec ) = 0.45017E-02
  weight for this iteration     100.00

 eigenvalues of (default mixing * dielectric matrix)
  average eigenvalue GAMMA=   1.4049
  3.4381  3.4381  2.4753  1.4350  1.4350  1.4508  1.4508  1.0060  1.0060  0.8299
  0.5579  0.3465  0.3997  0.3997

 Free energy of the ion-electron system (eV)
  ---------------------------------------------------
  alpha Z        PSCENC =       180.95685896
  Ewald energy   TEWEN  =     -2047.90029510
  -Hartree energ DENC   =      -422.54398097
  -exchange      EXHF   =         0.00000000
  -V(xc)+E(xc)   XCENC  =        78.52575822
  PAW double counting   =      3944.77380584    -3898.33253079
  entropy T*S    EENTRO =        -0.00233279
  eigenvalues    EBANDS =      -191.02104028
  atomic energy  EATOM  =      2312.28455477
  Solvation  Ediel_sol  =         0.00000000
  ---------------------------------------------------
  free energy    TOTEN  =       -43.25920216 eV

  energy without entropy =      -43.25686936  energy(sigma->0) =      -43.25842456


--------------------------------------------------------------------------------------------------------




--------------------------------------- Iteration      1(  20)  ---------------------------------------


    POTLOK:  cpu time    0.0090: real time    0.0090
    SETDIJ:  cpu time    0.0055: real time    0.0055
    EDDIAG:  cpu time    0.0321: real time    0.0346
  RMM-DIIS:  cpu time    0.3768: real time    0.3781
    ORTHCH:  cpu time    0.0024: real time    0.0024
       DOS:  cpu time    0.0002: real time    0.0002
    CHARGE:  cpu time    0.0195: real time    0.0195
    MIXING:  cpu time    0.0017: real time    0.0017
    --------------------------------------------
      LOOP:  cpu time    0.4473: real time    0.4512

 eigenvalue-minimisations  :   537
 total energy-change (2. order) :-0.1084620E-04  (-0.1149492E-04)
 number of electron      32.9999998 magnetization 
 augmentation part        4.2599503 magnetization 

 Broyden mixing:
  rms(total) = 0.24522E-02    rms(broyden)= 0.24522E-02
  rms(prec ) = 0.46399E-02
  weight for this iteration     100.00

 eigenvalues of (default mixing * dielectric matrix)
  average eigenvalue GAMMA=   1.5531
  5.4286  2.9263  2.5384  1.6862  1.4806  1.4806  1.0923  1.0923  1.3460  0.9947
  0.9947  0.8240  0.5579  0.5301  0.3233

 Free energy of the ion-electron system (eV)
  ---------------------------------------------------
  alpha Z        PSCENC =       180.95685896
  Ewald energy   TEWEN  =     -2047.90029510
  -Hartree energ DENC   =      -422.54537838
  -exchange      EXHF   =         0.00000000
  -V(xc)+E(xc)   XCENC  =        78.52583015
  PAW double counting   =      3944.91844328    -3898.47508441
  entropy T*S    EENTRO =        -0.00233284
  eigenvalues    EBANDS =      -191.02180942
  atomic energy  EATOM  =      2312.28455477
  Solvation  Ediel_sol  =         0.00000000
  ---------------------------------------------------
  free energy    TOTEN  =       -43.25921300 eV

  energy without entropy =      -43.25688016  energy(sigma->0) =      -43.25843539


--------------------------------------------------------------------------------------------------------




--------------------------------------- Iteration      1(  21)  ---------------------------------------


    POTLOK:  cpu time    0.0089: real time    0.0090
    SETDIJ:  cpu time    0.0055: real time    0.0055
    EDDIAG:  cpu time    0.0315: real time    0.0315
  RMM-DIIS:  cpu time    0.2994: real time    0.3050
    ORTHCH:  cpu time    0.0025: real time    0.0025
       DOS:  cpu time    0.0002: real time    0.0002
    CHARGE:  cpu time    0.0198: real time    0.0198
    MIXING:  cpu time    0.0018: real time    0.0018
    --------------------------------------------
      LOOP:  cpu time    0.3696: real time    0.3754

 eigenvalue-minimisations  :   402
 total energy-change (2. order) :-0.5998685E-05  (-0.6300521E-05)
 number of electron      32.9999998 magnetization 
 augmentation part        4.2597358 magnetization 

 Broyden mixing:
  rms(total) = 0.25865E-02    rms(broyden)= 0.25865E-02
  rms(prec ) = 0.48836E-02
  weight for this iteration     100.00

 eigenvalues of (default mixing * dielectric matrix)
  average eigenvalue GAMMA=   1.4738
  5.7361  2.8854  2.5411  1.7294  1.4652  1.4652  1.0959  1.0959  1.3354  0.9953
  0.9953  0.8234  0.5579  0.5360  0.3234  0.0004

 Free energy of the ion-electron system (eV)
  ---------------------------------------------------
  alpha Z        PSCENC =       180.95685896
  Ewald energy   TEWEN  =     -2047.90029510
  -Hartree energ DENC   =      -422.54537883
  -exchange      EXHF   =         0.00000000
  -V(xc)+E(xc)   XCENC  =        78.52582992
  PAW double counting   =      3944.91881737    -3898.47544505
  entropy T*S    EENTRO =        -0.00233283
  eigenvalues    EBANDS =      -191.02182820
  atomic energy  EATOM  =      2312.28455477
  Solvation  Ediel_sol  =         0.00000000
  ---------------------------------------------------
  free energy    TOTEN  =       -43.25921900 eV

  energy without entropy =      -43.25688617  energy(sigma->0) =      -43.25844139


--------------------------------------------------------------------------------------------------------




--------------------------------------- Iteration      1(  22)  ---------------------------------------


    POTLOK:  cpu time    0.0089: real time    0.0090
    SETDIJ:  cpu time    0.0055: real time    0.0055
    EDDIAG:  cpu time    0.0312: real time    0.0312
  RMM-DIIS:  cpu time    0.3858: real time    0.3902
    ORTHCH:  cpu time    0.0024: real time    0.0024
       DOS:  cpu time    0.0002: real time    0.0002
    CHARGE:  cpu time    0.0195: real time    0.0195
    MIXING:  cpu time    0.0019: real time    0.0019
    --------------------------------------------
      LOOP:  cpu time    0.4555: real time    0.4599

 eigenvalue-minimisations  :   558
 total energy-change (2. order) : 0.7509871E-06  (-0.5395835E-05)
 number of electron      32.9999998 magnetization 
 augmentation part        4.2597248 magnetization 

 Broyden mixing:
  rms(total) = 0.12059E-02    rms(broyden)= 0.12059E-02
  rms(prec ) = 0.20481E-02
  weight for this iteration     100.00

 eigenvalues of (default mixing * dielectric matrix)
  average eigenvalue GAMMA=   1.3913
  5.7120  2.8946  2.5425  1.7312  1.4660  1.4660  1.1093  1.1093  1.3371  0.9974
  0.9974  0.8227  0.5579  0.5295  0.3232  0.0051  0.0509

 Free energy of the ion-electron system (eV)
  ---------------------------------------------------
  alpha Z        PSCENC =       180.95685896
  Ewald energy   TEWEN  =     -2047.90029510
  -Hartree energ DENC   =      -422.53862691
  -exchange      EXHF   =         0.00000000
  -V(xc)+E(xc)   XCENC  =        78.52486028
  PAW double counting   =      3945.62788930    -3899.16076096
  entropy T*S    EENTRO =        -0.00233089
  eigenvalues    EBANDS =      -191.05136769
  atomic energy  EATOM  =      2312.28455477
  Solvation  Ediel_sol  =         0.00000000
  ---------------------------------------------------
  free energy    TOTEN  =       -43.25921825 eV

  energy without entropy =      -43.25688736  energy(sigma->0) =      -43.25844129


--------------------------------------------------------------------------------------------------------




--------------------------------------- Iteration      1(  23)  ---------------------------------------


    POTLOK:  cpu time    0.0090: real time    0.0090
    SETDIJ:  cpu time    0.0057: real time    0.0057
    EDDIAG:  cpu time    0.0312: real time    0.0315
WARNING in EDDRMM: call to ZHEGV failed, returncode =   8  4      4
  RMM-DIIS:  cpu time    0.3858: real time    0.3909
    ORTHCH:  cpu time    0.0025: real time    0.0025
       DOS:  cpu time    0.0002: real time    0.0002
    CHARGE:  cpu time    0.0197: real time    0.0197
    MIXING:  cpu time    0.0019: real time    0.0019
    --------------------------------------------
      LOOP:  cpu time    0.4560: real time    0.4614

 eigenvalue-minimisations  :   564
 total energy-change (2. order) :-0.1787925E-05  (-0.2158092E-05)
[...]

 Free energy of the ion-electron system (eV)
  ---------------------------------------------------
  alpha Z        PSCENC =       189.98660468
  Ewald energy   TEWEN  =     -2081.41231266
  -Hartree energ DENC   =      -409.99806360
  -exchange      EXHF   =         0.00000000
  -V(xc)+E(xc)   XCENC  =        79.09366679
  PAW double counting   =      4398.14622339    -4351.95568047
  entropy T*S    EENTRO =        -0.00240601
  eigenvalues    EBANDS =      -179.48731973
  atomic energy  EATOM  =      2312.28455477
  Solvation  Ediel_sol  =         0.00000000
  ---------------------------------------------------
  free energy    TOTEN  =       -43.34473284 eV

  energy without entropy =      -43.34232683  energy(sigma->0) =      -43.34393083


--------------------------------------------------------------------------------------------------------




 average (electrostatic) potential at core
  the test charge radii are     1.1929  1.2064  0.7215
  (the norm of the test charge is              1.0000)
       1 -34.2735       2 -42.1543       3 -71.1986       4 -71.1986       5 -71.1986
 
 
 
 E-fermi :   5.7337     XC(G=0): -12.2093     alpha+bet :-14.0457


 k-point     1 :       0.0000    0.0000    0.0000
  band No.  band energies     occupation 
      1     -28.5753      2.00000
      2     -14.0997      2.00000
      3     -12.8101      2.00000
      4     -12.8101      2.00000
      5     -10.7164      2.00000
      6     -10.7164      2.00000
      7     -10.7164      2.00000
      8       0.2990      2.00000
      9       0.2990      2.00000
     10       0.2990      2.00000
     11       2.2374      2.00000
     12       2.2374      2.00000
     13       2.2374      2.00000
     14       3.1980      2.00000
     15       3.1980      2.00000
     16       3.1980      2.00000
     17       4.4954      2.00000
     18       4.4954      2.00000
     19       4.4954      2.00000
     20       6.9407     -0.00000

 k-point     2 :       0.2500    0.0000    0.0000
  band No.  band energies     occupation 
      1     -28.5549      2.00000
      2     -14.1870      2.00000
      3     -12.8286      2.00000
      4     -12.7812      2.00000
      5     -10.6769      2.00000
      6     -10.6769      2.00000
      7     -10.2913      2.00000
      8      -0.5359      2.00000
      9       0.2400      2.00000
     10       0.2400      2.00000
     11       1.4225      2.00000
     12       1.4225      2.00000
     13       1.7027      2.00000
     14       1.7646      2.00000
     15       2.8727      2.00000
     16       2.8727      2.00000
     17       4.5650      2.00000
     18       5.7364      0.91045
     19       5.7364      0.91045
     20       6.9618     -0.00000

 k-point     3 :       0.5000    0.0000    0.0000
  band No.  band energies     occupation 
      1     -28.5343      2.00000
      2     -14.3644      2.00000
      3     -12.7520      2.00000
      4     -12.6378      2.00000
      5     -10.6366      2.00000
      6     -10.6366      2.00000
      7      -9.9593      2.00000
      8      -1.3672      2.00000
      9       0.1929      2.00000
     10       0.1929      2.00000
     11       0.8385      2.00000
     12       0.8385      2.00000
     13       0.8745      2.00000
     14       1.2595      2.00000
     15       2.7064      2.00000
     16       2.7064      2.00000
     17       4.6370      2.00000
     18       6.6190     -0.00000
     19       6.6190     -0.00000
     20       6.9730     -0.00000

 k-point     4 :       0.2500    0.2500    0.0000
  band No.  band energies     occupation 
      1     -28.5365      2.00000
      2     -14.0357      2.00000
      3     -13.0206      2.00000
      4     -12.7354      2.00000
      5     -10.6342      2.00000
      6     -10.4476      2.00000
      7     -10.2761      2.00000
      8      -0.8458      2.00000
      9      -0.3256      2.00000
     10       0.0666      2.00000
     11       0.2110      2.00000
     12       0.9704      2.00000
     13       1.6538      2.00000
     14       2.0838      2.00000
     15       2.2251      2.00000
     16       2.7339      2.00000
     17       5.6635      2.06329
     18       5.8175     -0.03922
     19       6.0421     -0.00000
     20       7.6715      0.00000

 k-point     5 :       0.5000    0.2500    0.0000
  band No.  band energies     occupation 
      1     -28.5179      2.00000
      2     -14.0048      2.00000
      3     -12.9343      2.00000
      4     -12.7713      2.00000
      5     -10.5906      2.00000
      6     -10.4078      2.00000
      7     -10.1214      2.00000
      8      -1.4188      2.00000
      9      -0.9209      2.00000
     10      -0.4353      2.00000
     11       0.2040      2.00000
     12       0.5164      2.00000
     13       1.5062      2.00000
     14       1.9153      2.00000
     15       1.9527      2.00000
     16       2.8121      2.00000
     17       5.7530      0.39882
     18       6.6015     -0.00000
     19       6.6587     -0.00000
     20       7.8090      0.00000

 k-point     6 :       0.5000    0.5000    0.0000
  band No.  band energies     occupation 
      1     -28.5015      2.00000
      2     -13.2778      2.00000
      3     -13.1868      2.00000
      4     -13.1868      2.00000
      5     -10.5436      2.00000
      6     -10.2144      2.00000
      7     -10.2144      2.00000
      8      -1.6647      2.00000
      9      -1.6319      2.00000
     10      -1.2021      2.00000
     11       0.2155      2.00000
     12       0.2155      2.00000
     13       1.4317      2.00000
     14       1.9072      2.00000
     15       1.9072      2.00000
     16       3.4419      2.00000
     17       6.5912     -0.00000
     18       6.5912     -0.00000
     19       6.9423     -0.00000
     20       8.0703      0.00000

 k-point     7 :       0.2500    0.2500    0.2500
  band No.  band energies     occupation 
      1     -28.5194      2.00000
      2     -13.8195      2.00000
      3     -12.8677      2.00000
      4     -12.8677      2.00000
      5     -10.6467      2.00000
      6     -10.6467      2.00000
      7     -10.1844      2.00000
      8      -1.0816      2.00000
      9      -0.3126      2.00000
     10      -0.3126      2.00000
     11       0.1990      2.00000
     12       0.1990      2.00000
     13       0.3589      2.00000
     14       2.5204      2.00000
     15       2.5204      2.00000
     16       2.8539      2.00000
     17       6.1005     -0.00000
     18       6.1825     -0.00000
     19       6.1825     -0.00000
     20       9.3396      0.00000

 k-point     8 :       0.5000    0.2500    0.2500
  band No.  band energies     occupation 
      1     -28.5021      2.00000
      2     -13.6570      2.00000
      3     -12.9242      2.00000
      4     -12.6813      2.00000
      5     -10.8804      2.00000
      6     -10.3889      2.00000
      7     -10.3628      2.00000
      8      -1.4383      2.00000
      9      -0.8611      2.00000
     10      -0.4773      2.00000
     11      -0.2697      2.00000
     12      -0.2317      2.00000
     13       0.4477      2.00000
     14       2.4759      2.00000
     15       2.6568      2.00000
     16       2.9364      2.00000
     17       6.2596     -0.00000
     18       6.7441     -0.00000
     19       6.7750     -0.00000
     20       9.3064      0.00000

 k-point     9 :       0.5000    0.5000    0.2500
  band No.  band energies     occupation 
      1     -28.4863      2.00000
      2     -12.9560      2.00000
      3     -12.9460      2.00000
      4     -12.9460      2.00000
      5     -10.8416      2.00000
      6     -10.6134      2.00000
      7     -10.6134      2.00000
      8      -1.6277      2.00000
      9      -1.1922      2.00000
     10      -1.0747      2.00000
     11      -0.2310      2.00000
     12      -0.2310      2.00000
     13      -0.1385      2.00000
     14       2.8061      2.00000
     15       2.8061      2.00000
     16       3.4963      2.00000
     17       6.8605     -0.00000
     18       6.8605     -0.00000
     19       7.0750     -0.00000
     20       9.7977      0.00000

 k-point    10 :       0.5000    0.5000    0.5000
  band No.  band energies     occupation 
      1     -28.4710      2.00000
      2     -12.5973      2.00000
      3     -12.5973      2.00000
      4     -12.5973      2.00000
      5     -11.1134      2.00000
      6     -11.1134      2.00000
      7     -11.1134      2.00000
      8      -1.8136      2.00000
      9      -1.1825      2.00000
     10      -1.1825      2.00000
     11      -0.4988      2.00000
     12      -0.4988      2.00000
     13      -0.4988      2.00000
     14       3.5519      2.00000
     15       3.5519      2.00000
     16       3.5519      2.00000
     17       7.2208      0.00000
     18       7.2208      0.00000
     19       7.2208      0.00000
     20      10.9044      0.00000


--------------------------------------------------------------------------------------------------------


 soft charge-density along one line, spin component           1
         0         1         2         3         4         5         6         7         8         9
 total charge-density along one line
 
 pseudopotential strength for first ion, spin component:           1
-12.130  -2.235   0.000   0.000  -0.000   0.000   0.000  -0.000
 -2.235  -2.442   0.000   0.000  -0.000   0.000   0.000  -0.000
  0.000   0.000 -14.488  -0.000  -0.000 -14.222  -0.000  -0.000
  0.000   0.000  -0.000 -14.488   0.000  -0.000 -14.222   0.000
 -0.000  -0.000  -0.000   0.000 -14.488  -0.000   0.000 -14.222
  0.000   0.000 -14.222  -0.000  -0.000 -13.958  -0.000  -0.000
  0.000   0.000  -0.000 -14.222   0.000  -0.000 -13.958   0.000
 -0.000  -0.000  -0.000   0.000 -14.222  -0.000   0.000 -13.958
 -0.000  -0.000  -0.000  -0.000   0.000  -0.000  -0.000   0.000
 -0.000  -0.000   0.000   0.000  -0.000   0.000   0.000  -0.000
 -0.000  -0.000  -0.000   0.000   0.000  -0.000   0.000   0.000
  0.000   0.000  -0.000   0.000   0.000  -0.000   0.000   0.000
  0.000  -0.000  -0.000   0.000  -0.000  -0.000   0.000  -0.000
 -0.000  -0.000  -0.000  -0.000   0.000  -0.000  -0.000   0.000
 -0.000  -0.000   0.000   0.000  -0.000   0.000   0.000  -0.000
 -0.000  -0.000  -0.000   0.000   0.000  -0.000   0.000   0.000
  0.000   0.000  -0.000   0.000   0.000  -0.000   0.000   0.000
  0.000  -0.000  -0.000   0.000  -0.000  -0.000   0.000  -0.000
 total augmentation occupancy for first ion, spin component:           1
  1.996  -0.018   0.000   0.000   0.000   0.000   0.000   0.000  -0.000   0.000  -0.000   0.000   0.000   0.000   0.000   0.000
 -0.018   0.413   0.000   0.000   0.000   0.000   0.000   0.000  -0.000   0.000   0.000   0.000   0.000   0.000   0.000   0.000
  0.000   0.000   9.762   0.000  -0.000  -8.267  -0.000   0.000   0.000   0.000   0.000   0.000   0.000   0.000   0.000   0.000
  0.000   0.000   0.000   9.762   0.000   0.000  -8.267   0.000   0.000   0.000   0.000   0.000   0.000   0.000   0.000   0.000
  0.000   0.000   0.000   0.000   9.762  -0.000  -0.000  -8.267   0.000   0.000   0.000   0.000   0.000   0.000   0.000   0.000
  0.000   0.000  -8.267   0.000   0.000   8.812   0.000  -0.000   0.000   0.000   0.000   0.000   0.000   0.000   0.000   0.000
  0.000   0.000  -0.000  -8.267  -0.000  -0.000   8.812  -0.000   0.000   0.000   0.000   0.000   0.000   0.000   0.000   0.000
  0.000   0.000   0.000   0.000  -8.267  -0.000  -0.000   8.812   0.000   0.000   0.000   0.000   0.000   0.000   0.000   0.000
  0.000   0.000   0.000   0.000   0.000   0.000   0.000   0.000   7.326  -0.000   0.000  -0.000  -0.000  -4.203   0.000  -0.000
 -0.000  -0.000   0.000   0.000   0.000   0.000   0.000   0.000   0.000   7.326   0.000   0.000  -0.000  -0.000  -4.203   0.000
  0.000   0.000   0.000   0.000   0.000   0.000   0.000   0.000   0.000   0.000   4.590   0.000  -0.000  -0.000   0.000  -2.624
  0.000   0.000   0.000   0.000   0.000   0.000   0.000   0.000  -0.000   0.000   0.000   7.326   0.000  -0.000   0.000  -0.000
  0.000   0.000   0.000   0.000   0.000   0.000   0.000   0.000   0.000  -0.000   0.000   0.000   4.590  -0.000  -0.000  -0.000
  0.000   0.000   0.000   0.000   0.000   0.000   0.000   0.000  -4.203   0.000  -0.000   0.000   0.000   2.414  -0.000  -0.000
  0.000   0.000   0.000   0.000   0.000   0.000   0.000   0.000   0.000  -4.203   0.000   0.000  -0.000   0.000   2.414  -0.000
  0.000   0.000   0.000   0.000   0.000   0.000   0.000   0.000  -0.000   0.000  -2.624   0.000   0.000   0.000  -0.000   1.502
 -0.000   0.000   0.000   0.000   0.000   0.000   0.000   0.000   0.000   0.000  -0.000  -4.203  -0.000  -0.000  -0.000  -0.000
  0.000  -0.000   0.000   0.000   0.000   0.000   0.000   0.000  -0.000   0.000  -0.000  -0.000  -2.624   0.000   0.000  -0.000


------------------------ aborting loop because EDIFF is reached ----------------------------------------


 


 total charge     
 
# of ion       s       p       d       tot
------------------------------------------
    1        2.001   5.800   0.248   8.049
    2        0.588   1.215   3.745   5.548
    3        1.525   3.713   0.000   5.237
    4        1.552   3.458   0.000   5.010
    5        1.570   3.267   0.000   4.838
--------------------------------------------------
tot          7.236  17.454   3.993  28.683
 
    CHARGE:  cpu time    0.0255: real time    0.0255
    FORLOC:  cpu time    0.0042: real time    0.0042
    FORNL :  cpu time    0.1834: real time    0.1870
    STRESS:  cpu time    0.6091: real time    0.6155
    FORCOR:  cpu time    0.0136: real time    0.0136
    FORHAR:  cpu time    0.0111: real time    0.0111
    MIXING:  cpu time    0.0014: real time    0.0014
    OFIELD:  cpu time    0.0000: real time    0.0000

  FORCE on cell =-STRESS in cart. coord.  units (eV):
  Direction    XX          YY          ZZ          XY          YZ          ZX
  --------------------------------------------------------------------------------------
  Alpha Z   189.98660   189.98660   189.98660
  Ewald    -693.80460  -693.80460  -693.80460     0.00000    -0.00000     0.00000
  Hartree   136.66591   136.66591   136.66591    -0.00000    -0.00000    -0.00000
  E(xc)    -148.80168  -148.80168  -148.80168    -0.00000     0.00000     0.00000
  Local      16.93195    16.93195    16.93195    -0.00000    -0.00000    -0.00000
  n-local  -113.77798  -111.10284  -108.76692    -0.95178    -0.49376    -0.19382
  augment    44.77514    44.77514    44.77514     0.00000    -0.00000     0.00000
  Kinetic   553.42809   568.07714   574.86803    -1.06049    -2.15575    -0.81703
  Fock        0.00000     0.00000     0.00000     0.00000     0.00000     0.00000
  -------------------------------------------------------------------------------------
  Total      -0.00484    -0.00484    -0.00484    -0.00000     0.00000    -0.00000
  in kB      -0.14308    -0.14308    -0.14308    -0.00000     0.00000    -0.00000
  external pressure =       -0.14 kB  Pullay stress =        0.00 kB


 VOLUME and BASIS-vectors are now :
 -----------------------------------------------------------------------------
  energy-cutoff  :      600.00
  volume of cell :       54.21
      direct lattice vectors                 reciprocal lattice vectors
     3.784588664 -0.000000000 -0.000000000     0.264229508 -0.000000000 -0.000000000
     0.000000000  3.784588664 -0.000000000     0.000000000  0.264229508 -0.000000000
     0.000000000  0.000000000  3.784588664     0.000000000  0.000000000  0.264229508

  length of vectors
     3.784588664  3.784588664  3.784588664     0.264229508  0.264229508  0.264229508


 FORCES acting on ions
    electron-ion (+dipol)            ewald-force                    non-local-force                 convergence-correction
 -----------------------------------------------------------------------------------------------
   0.109E-14 -.323E-18 0.471E-15   -.245E-14 -.326E-15 -.114E-14   0.296E-26 0.865E-26 0.000E+00   -.897E-15 0.114E-14 0.140E-13
   0.696E-14 -.848E-12 -.208E-12   -.708E-14 0.660E-14 0.535E-14   0.155E-26 0.709E-26 0.000E+00   0.129E-14 0.437E-15 -.278E-14
   0.117E-12 -.148E-11 -.135E-11   0.296E-14 0.339E-14 -.469E-14   -.829E-26 -.192E-25 0.000E+00   -.122E-13 -.182E-14 0.116E-13
   0.114E-12 0.270E-17 -.206E-11   -.125E-14 -.566E-14 -.191E-15   0.236E-26 -.322E-26 0.000E+00   -.963E-14 -.138E-14 0.176E-13
   0.225E-14 0.117E-12 0.117E-12   0.779E-14 -.322E-14 -.247E-15   -.309E-26 -.933E-26 0.000E+00   -.527E-14 0.107E-14 0.157E-13
 -----------------------------------------------------------------------------------------------
   0.241E-12 -.221E-11 -.350E-11   -.364E-16 0.780E-15 -.924E-15   -.451E-26 -.160E-25 0.000E+00   -.267E-13 -.552E-15 0.561E-13
 
 
 POSITION                                       TOTAL-FORCE (eV/Angst)
 -----------------------------------------------------------------------------------
      0.00000      0.00000      0.00000         0.000000      0.000000      0.000000
      1.89229      1.89229      1.89229        -0.000000      0.000000      0.000000
      1.89229      1.89229     -0.00000         0.000000      0.000000      0.000000
      1.89229      0.00000      1.89229         0.000000     -0.000000      0.000000
      0.00000      1.89229      1.89229        -0.000000      0.000000      0.000000
 -----------------------------------------------------------------------------------
    total drift:                                0.000000     -0.000000     -0.000000


--------------------------------------------------------------------------------------------------------



  FREE ENERGIE OF THE ION-ELECTRON SYSTEM (eV)
  ---------------------------------------------------
  free  energy   TOTEN  =       -43.34473284 eV

  energy  without entropy=      -43.34232683  energy(sigma->0) =      -43.34393083
 
 d Force = 0.0000000E+00[ 0.000E+00, 0.000E+00]  d Energy = 0.1500341E-04-0.150E-04
 d Force = 0.0000000E+00[ 0.000E+00, 0.000E+00]  d Ewald  = 0.4036104E+00-0.404E+00


--------------------------------------------------------------------------------------------------------


    POTLOK:  cpu time    0.0168: real time    0.0168


--------------------------------------------------------------------------------------------------------




--------------------------------------------------------------------------------------------------------


  
 reached required accuracy - stopping structural energy minimisation
     LOOP+:  cpu time    4.1580: real time    4.2218
    4ORBIT:  cpu time    0.0000: real time    0.0000
 


 total charge     
 
# of ion       s       p       d       tot
------------------------------------------
    1        2.001   5.800   0.248   8.049
    2        0.588   1.215   3.745   5.548
    3        1.525   3.713   0.000   5.237
    4        1.552   3.458   0.000   5.010
    5        1.570   3.267   0.000   4.838
--------------------------------------------------
tot          7.236  17.454   3.993  28.683
 

 total amount of memory used by VASP MPI-rank0    44095. kBytes
=======================================================================

   base      :      30000. kBytes
   nonlr-proj:       4402. kBytes
   fftplans  :       2401. kBytes
   grid      :       5619. kBytes
   one-center:         77. kBytes
   wavefun   :       1596. kBytes
 
  
  
 General timing and accounting informations for this job:
 ========================================================
  
                  Total CPU time used (sec):       43.279
                            User time (sec):       43.119
                          System time (sec):        0.160
                         Elapsed time (sec):       44.132
  
                   Maximum memory used (kb):      125776.
                   Average memory used (kb):           0.
  
                          Minor page faults:        12955
                          Major page faults:            0
                 Voluntary context switches:           59
