PROCAR lm decomposed
# of k-points:   10         # of bands:   20         # of ions:    5

 k-point     1 :    0.00000000 0.00000000 0.00000000     weight = 0.01562500

band     1 # energy  -28.57526716 # occ.  2.00000000
 
ion      s     py     pz     px    dxy    dyz    dz2    dxz  x2-y2    tot
    1  0.968  0.000  0.000  0.000  0.000  0.000  0.000  0.000  0.000  0.968
    2  0.001  0.000  0.000  0.000  0.000  0.000  0.000  0.000  0.000  0.001
    3  0.001  0.000  0.000  0.000  0.000  0.000  0.000  0.000  0.000  0.001
    4  0.001  0.000  0.000  0.000  0.000  0.000  0.000  0.000  0.000  0.001
    5  0.001  0.000  0.000  0.000  0.000  0.000  0.000  0.000  0.000  0.001
tot    0.971  0.000  0.000  0.000  0.000  0.000  0.000  0.000  0.000  0.971
 
band     2 # energy  -14.09973499 # occ.  2.00000000
 
ion      s     py     pz     px    dxy    dyz    dz2    dxz  x2-y2    tot
    1  0.015  0.000  0.000  0.000  0.000  0.000  0.000  0.000  0.000  0.015
    2  0.156  0.000  0.000  0.000  0.000  0.000  0.000  0.000  0.000  0.156
    3  0.232  0.000  0.000  0.000  0.000  0.000  0.000  0.000  0.000  0.232
    4  0.232  0.000  0.000  0.000  0.000  0.000  0.000  0.000  0.000  0.232
    5  0.232  0.000  0.000  0.000  0.000  0.000  0.000  0.000  0.000  0.232
tot    0.866  0.000  0.000  0.000  0.000  0.000  0.000  0.000  0.000  0.866
 
band     3 # energy  -12.81005157 # occ.  2.00000000
 
ion      s     py     pz     px    dxy    dyz    dz2    dxz  x2-y2    tot
    1  0.000  0.000  0.000  0.000  0.000  0.000  0.003  0.000  0.000  0.003
    2  0.000  0.000  0.000  0.000  0.000  0.000  0.150  0.000  0.010  0.161
    3  0.483  0.000  0.000  0.000  0.000  0.000  0.000  0.000  0.000  0.483
    4  0.096  0.000  0.000  0.000  0.000  0.000  0.000  0.000  0.000  0.096
    5  0.193  0.000  0.000  0.000  0.000  0.000  0.000  0.000  0.000  0.193
tot    0.773  0.000  0.000  0.000  0.000  0.000  0.153  0.000  0.010  0.937
 
band     4 # energy  -12.81005157 # occ.  2.00000000
 
ion      s     py     pz     px    dxy    dyz    dz2    dxz  x2-y2    tot
    1  0.000  0.000  0.000  0.000  0.000  0.000  0.000  0.000  0.003  0.003
    2  0.000  0.000  0.000  0.000  0.000  0.000  0.010  0.000  0.150  0.161
    3  0.032  0.000  0.000  0.000  0.000  0.000  0.000  0.000  0.000  0.032
    4  0.419  0.000  0.000  0.000  0.000  0.000  0.000  0.000  0.000  0.419
    5  0.322  0.000  0.000  0.000  0.000  0.000  0.000  0.000  0.000  0.322
tot    0.773  0.000  0.000  0.000  0.000  0.000  0.010  0.000  0.153  0.937
 
band     5 # energy  -10.71641569 # occ.  2.00000000
 
ion      s     py     pz     px    dxy    dyz    dz2    dxz  x2-y2    tot
    1  0.000  0.322  0.254  0.354  0.000  0.000  0.000  0.000  0.000  0.930
    2  0.000  0.001  0.001  0.001  0.000  0.000  0.000  0.000  0.000  0.003
    3  0.000  0.001  0.000  0.002  0.000  0.000  0.000  0.000  0.000  0.003
    4  0.000  0.000  0.001  0.002  0.000  0.000  0.000  0.000  0.000  0.003
    5  0.000  0.001  0.001  0.000  0.000  0.000  0.000  0.000  0.000  0.003
tot    0.000  0.326  0.257  0.359  0.000  0.000  0.000  0.000  0.000  0.942
 
band     6 # energy  -10.71641569 # occ.  2.00000000
 
ion      s     py     pz     px    dxy    dyz    dz2    dxz  x2-y2    tot
    1  0.000  0.200  0.517  0.212  0.000  0.000  0.000  0.000  0.000  0.930
    2  0.000  0.001  0.002  0.001  0.000  0.000  0.000  0.000  0.000  0.003
    3  0.000  0.001  0.000  0.001  0.000  0.000  0.000  0.000  0.000  0.002
    4  0.000  0.000  0.002  0.001  0.000  0.000  0.000  0.000  0.000  0.003
    5  0.000  0.001  0.002  0.000  0.000  0.000  0.000  0.000  0.000  0.003
tot    0.000  0.203  0.524  0.215  0.000  0.000  0.000  0.000  0.000  0.942
 
band     7 # energy  -10.71641569 # occ.  2.00000000
 
ion      s     py     pz     px    dxy    dyz    dz2    dxz  x2-y2    tot
    1  0.000  0.407  0.159  0.364  0.000  0.000  0.000  0.000  0.000  0.930
    2  0.000  0.001  0.001  0.001  0.000  0.000  0.000  0.000  0.000  0.003
    3  0.000  0.002  0.000  0.002  0.000  0.000  0.000  0.000  0.000  0.003
    4  0.000  0.000  0.001  0.002  0.000  0.000  0.000  0.000  0.000  0.003
    5  0.000  0.002  0.001  0.000  0.000  0.000  0.000  0.000  0.000  0.003
tot    0.000  0.413  0.161  0.368  0.000  0.000  0.000  0.000  0.000  0.942
 
band     8 # energy    0.29902663 # occ.  2.00000000
 
ion      s     py     pz     px    dxy    dyz    dz2    dxz  x2-y2    tot
    1  0.000  0.014  0.013  0.010  0.000  0.000  0.000  0.000  0.000  0.037
    2  0.000  0.096  0.086  0.070  0.000  0.000  0.000  0.000  0.000  0.253
    3  0.000  0.050  0.111  0.036  0.000  0.000  0.000  0.000  0.000  0.197
    4  0.000  0.124  0.045  0.036  0.000  0.000  0.000  0.000  0.000  0.204
    5  0.000  0.050  0.045  0.090  0.000  0.000  0.000  0.000  0.000  0.184
tot    0.000  0.333  0.299  0.243  0.000  0.000  0.000  0.000  0.000  0.875
 
band     9 # energy    0.29902663 # occ.  2.00000000
 
ion      s     py     pz     px    dxy    dyz    dz2    dxz  x2-y2    tot
    1  0.000  0.001  0.019  0.017  0.000  0.000  0.000  0.000  0.000  0.037
    2  0.000  0.005  0.130  0.117  0.000  0.000  0.000  0.000  0.000  0.253
    3  0.000  0.003  0.167  0.061  0.000  0.000  0.000  0.000  0.000  0.230
    4  0.000  0.007  0.067  0.061  0.000  0.000  0.000  0.000  0.000  0.135
    5  0.000  0.003  0.067  0.150  0.000  0.000  0.000  0.000  0.000  0.220
tot    0.000  0.018  0.450  0.406  0.000  0.000  0.000  0.000  0.000  0.875
 
band    10 # energy    0.29902663 # occ.  2.00000000
 
ion      s     py     pz     px    dxy    dyz    dz2    dxz  x2-y2    tot
    1  0.000  0.022  0.005  0.009  0.000  0.000  0.000  0.000  0.000  0.037
    2  0.000  0.151  0.036  0.065  0.000  0.000  0.000  0.000  0.000  0.253
    3  0.000  0.078  0.047  0.034  0.000  0.000  0.000  0.000  0.000  0.158
    4  0.000  0.194  0.019  0.034  0.000  0.000  0.000  0.000  0.000  0.246
    5  0.000  0.078  0.019  0.084  0.000  0.000  0.000  0.000  0.000  0.181
tot    0.000  0.523  0.126  0.226  0.000  0.000  0.000  0.000  0.000  0.875
 
band    11 # energy    2.23740341 # occ.  2.00000000
 
ion      s     py     pz     px    dxy    dyz    dz2    dxz  x2-y2    tot
    1  0.000  0.000  0.000  0.000  0.000  0.000  0.000  0.000  0.000  0.000
    2  0.000  0.000  0.000  0.000  0.000  0.000  0.000  0.000  0.000  0.000
    3  0.000  0.224  0.000  0.107  0.000  0.000  0.000  0.000  0.000  0.331
    4  0.000  0.000  0.021  0.107  0.000  0.000  0.000  0.000  0.000  0.128
    5  0.000  0.224  0.021  0.000  0.000  0.000  0.000  0.000  0.000  0.245
tot    0.000  0.448  0.042  0.214  0.000  0.000  0.000  0.000  0.000  0.704
 
band    12 # energy    2.23740341 # occ.  2.00000000
 
ion      s     py     pz     px    dxy    dyz    dz2    dxz  x2-y2    tot
    1  0.000  0.000  0.000  0.000  0.000  0.000  0.000  0.000  0.000  0.000
    2  0.000  0.000  0.000  0.000  0.000  0.000  0.000  0.000  0.000  0.000
    3  0.000  0.032  0.000  0.000  0.000  0.000  0.000  0.000  0.000  0.033
    4  0.000  0.000  0.319  0.000  0.000  0.000  0.000  0.000  0.000  0.320
    5  0.000  0.032  0.319  0.000  0.000  0.000  0.000  0.000  0.000  0.352
tot    0.000  0.065  0.638  0.001  0.000  0.000  0.000  0.000  0.000  0.704
 
band    13 # energy    2.23740341 # occ.  2.00000000
 
ion      s     py     pz     px    dxy    dyz    dz2    dxz  x2-y2    tot
    1  0.000  0.000  0.000  0.000  0.000  0.000  0.000  0.000  0.000  0.000
    2  0.000  0.000  0.000  0.000  0.000  0.000  0.000  0.000  0.000  0.000
    3  0.000  0.096  0.000  0.245  0.000  0.000  0.000  0.000  0.000  0.340
    4  0.000  0.000  0.012  0.245  0.000  0.000  0.000  0.000  0.000  0.256
    5  0.000  0.096  0.012  0.000  0.000  0.000  0.000  0.000  0.000  0.108
tot    0.000  0.192  0.023  0.489  0.000  0.000  0.000  0.000  0.000  0.704
 
band    14 # energy    3.19802252 # occ.  2.00000000
 
ion      s     py     pz     px    dxy    dyz    dz2    dxz  x2-y2    tot
    1  0.000  0.003  0.003  0.007  0.000  0.000  0.000  0.000  0.000  0.014
    2  0.000  0.014  0.012  0.030  0.000  0.000  0.000  0.000  0.000  0.056
    3  0.000  0.048  0.085  0.104  0.000  0.000  0.000  0.000  0.000  0.238
    4  0.000  0.096  0.043  0.104  0.000  0.000  0.000  0.000  0.000  0.243
    5  0.000  0.048  0.043  0.208  0.000  0.000  0.000  0.000  0.000  0.299
tot    0.000  0.210  0.186  0.453  0.000  0.000  0.000  0.000  0.000  0.849
 
band    15 # energy    3.19802252 # occ.  2.00000000
 
ion      s     py     pz     px    dxy    dyz    dz2    dxz  x2-y2    tot
    1  0.000  0.010  0.002  0.002  0.000  0.000  0.000  0.000  0.000  0.014
    2  0.000  0.039  0.007  0.009  0.000  0.000  0.000  0.000  0.000  0.056
    3  0.000  0.137  0.051  0.033  0.000  0.000  0.000  0.000  0.000  0.220
    4  0.000  0.273  0.025  0.033  0.000  0.000  0.000  0.000  0.000  0.331
    5  0.000  0.137  0.025  0.066  0.000  0.000  0.000  0.000  0.000  0.228
tot    0.000  0.595  0.111  0.143  0.000  0.000  0.000  0.000  0.000  0.849
 
band    16 # energy    3.19802252 # occ.  2.00000000
 
ion      s     py     pz     px    dxy    dyz    dz2    dxz  x2-y2    tot
    1  0.000  0.001  0.009  0.004  0.000  0.000  0.000  0.000  0.000  0.014
    2  0.000  0.003  0.036  0.017  0.000  0.000  0.000  0.000  0.000  0.056
    3  0.000  0.010  0.253  0.058  0.000  0.000  0.000  0.000  0.000  0.322
    4  0.000  0.020  0.127  0.058  0.000  0.000  0.000  0.000  0.000  0.205
    5  0.000  0.010  0.127  0.116  0.000  0.000  0.000  0.000  0.000  0.253
tot    0.000  0.044  0.552  0.252  0.000  0.000  0.000  0.000  0.000  0.849
 
band    17 # energy    4.49540775 # occ.  2.00000000
 
ion      s     py     pz     px    dxy    dyz    dz2    dxz  x2-y2    tot
    1  0.000  0.000  0.000  0.000  0.000  0.000  0.000  0.016  0.000  0.017
    2  0.000  0.000  0.000  0.000  0.000  0.023  0.000  0.870  0.000  0.893
    3  0.000  0.000  0.000  0.000  0.000  0.000  0.000  0.000  0.000  0.000
    4  0.000  0.000  0.000  0.000  0.000  0.000  0.000  0.000  0.000  0.000
    5  0.000  0.000  0.000  0.000  0.000  0.000  0.000  0.000  0.000  0.000
tot    0.000  0.000  0.000  0.000  0.000  0.024  0.000  0.886  0.000  0.910
 
band    18 # energy    4.49540775 # occ.  2.00000000
 
ion      s     py     pz     px    dxy    dyz    dz2    dxz  x2-y2    tot
    1  0.000  0.000  0.000  0.000  0.000  0.016  0.000  0.000  0.000  0.017
    2  0.000  0.000  0.000  0.000  0.000  0.870  0.000  0.023  0.000  0.893
    3  0.000  0.000  0.000  0.000  0.000  0.000  0.000  0.000  0.000  0.000
    4  0.000  0.000  0.000  0.000  0.000  0.000  0.000  0.000  0.000  0.000
    5  0.000  0.000  0.000  0.000  0.000  0.000  0.000  0.000  0.000  0.000
tot    0.000  0.000  0.000  0.000  0.000  0.886  0.000  0.024  0.000  0.910
 
band    19 # energy    4.49540775 # occ.  2.00000000
 
ion      s     py     pz     px    dxy    dyz    dz2    dxz  x2-y2    tot
    1  0.000  0.000  0.000  0.000  0.017  0.000  0.000  0.000  0.000  0.017
    2  0.000  0.000  0.000  0.000  0.893  0.000  0.000  0.000  0.000  0.893
    3  0.000  0.000  0.000  0.000  0.000  0.000  0.000  0.000  0.000  0.000
    4  0.000  0.000  0.000  0.000  0.000  0.000  0.000  0.000  0.000  0.000
    5  0.000  0.000  0.000  0.000  0.000  0.000  0.000  0.000  0.000  0.000
tot    0.000  0.000  0.000  0.000  0.910  0.000  0.000  0.000  0.000  0.910
 
band    20 # energy    6.94067194 # occ. -0.00000000
 
ion      s     py     pz     px    dxy    dyz    dz2    dxz  x2-y2    tot
    1  0.000  0.000  0.000  0.000  0.000  0.000  0.006  0.000  0.003  0.009
    2  0.000  0.000  0.000  0.000  0.000  0.000  0.596  0.000  0.317  0.912
    3  0.019  0.000  0.000  0.000  0.000  0.000  0.000  0.000  0.000  0.019
    4  0.024  0.000  0.000  0.000  0.000  0.000  0.000  0.000  0.000  0.024
    5  0.001  0.000  0.000  0.000  0.000  0.000  0.000  0.000  0.000  0.001
tot    0.043  0.000  0.000  0.000  0.000  0.000  0.601  0.000  0.320  0.964
 

 k-point     2 :    0.25000000 0.00000000 0.00000000     weight = 0.09375000

band     1 # energy  -28.55486959 # occ.  2.00000000
 
ion      s     py     pz     px    dxy    dyz    dz2    dxz  x2-y2    tot
    1  0.971  0.000  0.000  0.000  0.000  0.000  0.000  0.000  0.000  0.971
    2  0.000  0.000  0.000  0.000  0.000  0.000  0.000  0.000  0.000  0.001
    3  0.000  0.000  0.000  0.000  0.000  0.000  0.000  0.000  0.000  0.000
    4  0.000  0.000  0.000  0.000  0.000  0.000  0.000  0.000  0.000  0.000
    5  0.001  0.000  0.000  0.000  0.000  0.000  0.000  0.000  0.000  0.001
tot    0.972  0.000  0.000  0.000  0.000  0.000  0.000  0.000  0.000  0.972
 
band     2 # energy  -14.18695597 # occ.  2.00000000
 
ion      s     py     pz     px    dxy    dyz    dz2    dxz  x2-y2    tot
    1  0.007  0.000  0.000  0.078  0.000  0.000  0.000  0.000  0.000  0.085
    2  0.125  0.000  0.000  0.003  0.000  0.000  0.003  0.000  0.010  0.141
    3  0.283  0.000  0.000  0.000  0.000  0.000  0.000  0.000  0.000  0.283
    4  0.283  0.000  0.000  0.000  0.000  0.000  0.000  0.000  0.000  0.283
    5  0.069  0.000  0.000  0.001  0.000  0.000  0.000  0.000  0.000  0.069
tot    0.766  0.000  0.000  0.081  0.000  0.000  0.003  0.000  0.010  0.861
 
band     3 # energy  -12.82859160 # occ.  2.00000000
 
ion      s     py     pz     px    dxy    dyz    dz2    dxz  x2-y2    tot
    1  0.002  0.000  0.000  0.026  0.000  0.000  0.001  0.000  0.002  0.031
    2  0.004  0.000  0.000  0.048  0.000  0.000  0.021  0.000  0.062  0.134
    3  0.030  0.000  0.000  0.001  0.000  0.000  0.000  0.000  0.000  0.031
    4  0.030  0.000  0.000  0.001  0.000  0.000  0.000  0.000  0.000  0.031
    5  0.680  0.000  0.000  0.000  0.000  0.000  0.000  0.000  0.000  0.680
tot    0.747  0.000  0.000  0.076  0.000  0.000  0.021  0.000  0.063  0.907
 
band     4 # energy  -12.78119496 # occ.  2.00000000
 
ion      s     py     pz     px    dxy    dyz    dz2    dxz  x2-y2    tot
    1  0.000  0.000  0.000  0.000  0.000  0.000  0.001  0.000  0.000  0.002
    2  0.000  0.000  0.000  0.000  0.000  0.000  0.121  0.000  0.040  0.161
    3  0.388  0.000  0.000  0.000  0.000  0.000  0.000  0.000  0.000  0.388
    4  0.388  0.000  0.000  0.000  0.000  0.000  0.000  0.000  0.000  0.388
    5  0.000  0.000  0.000  0.000  0.000  0.000  0.000  0.000  0.000  0.000
tot    0.776  0.000  0.000  0.000  0.000  0.000  0.122  0.000  0.041  0.939
 
band     5 # energy  -10.67689654 # occ.  2.00000000
 
ion      s     py     pz     px    dxy    dyz    dz2    dxz  x2-y2    tot
    1  0.000  0.870  0.065  0.000  0.000  0.000  0.000  0.000  0.000  0.935
    2  0.000  0.002  0.000  0.000  0.001  0.000  0.000  0.000  0.000  0.003
    3  0.000  0.002  0.000  0.000  0.000  0.000  0.000  0.000  0.000  0.002
    4  0.000  0.000  0.000  0.000  0.000  0.000  0.000  0.000  0.000  0.000
    5  0.000  0.004  0.000  0.000  0.000  0.000  0.000  0.000  0.000  0.004
tot    0.000  0.878  0.066  0.000  0.001  0.000  0.000  0.000  0.000  0.945
 
band     6 # energy  -10.67689654 # occ.  2.00000000
 
ion      s     py     pz     px    dxy    dyz    dz2    dxz  x2-y2    tot
    1  0.000  0.065  0.870  0.000  0.000  0.000  0.000  0.000  0.000  0.935
    2  0.000  0.000  0.002  0.000  0.000  0.000  0.000  0.001  0.000  0.003
    3  0.000  0.000  0.000  0.000  0.000  0.000  0.000  0.000  0.000  0.000
    4  0.000  0.000  0.002  0.000  0.000  0.000  0.000  0.000  0.000  0.002
    5  0.000  0.000  0.004  0.000  0.000  0.000  0.000  0.000  0.000  0.004
tot    0.000  0.066  0.878  0.000  0.000  0.000  0.000  0.001  0.000  0.945
 
band     7 # energy  -10.29126152 # occ.  2.00000000
 
ion      s     py     pz     px    dxy    dyz    dz2    dxz  x2-y2    tot
    1  0.000  0.000  0.000  0.832  0.000  0.000  0.000  0.000  0.000  0.833
    2  0.008  0.000  0.000  0.000  0.000  0.000  0.003  0.000  0.010  0.022
    3  0.052  0.000  0.000  0.002  0.000  0.000  0.000  0.000  0.000  0.053
    4  0.052  0.000  0.000  0.002  0.000  0.000  0.000  0.000  0.000  0.053
    5  0.005  0.000  0.000  0.000  0.000  0.000  0.000  0.000  0.000  0.006
tot    0.117  0.000  0.000  0.837  0.000  0.000  0.003  0.000  0.010  0.967
 
band     8 # energy   -0.53589987 # occ.  2.00000000
 
ion      s     py     pz     px    dxy    dyz    dz2    dxz  x2-y2    tot
    1  0.003  0.000  0.000  0.015  0.000  0.000  0.000  0.000  0.000  0.018
    2  0.053  0.000  0.000  0.146  0.000  0.000  0.051  0.000  0.153  0.403
    3  0.000  0.000  0.000  0.052  0.000  0.000  0.000  0.000  0.000  0.052
    4  0.000  0.000  0.000  0.052  0.000  0.000  0.000  0.000  0.000  0.052
    5  0.000  0.000  0.000  0.430  0.000  0.000  0.000  0.000  0.000  0.431
tot    0.057  0.000  0.000  0.695  0.000  0.000  0.051  0.000  0.153  0.956
 
band     9 # energy    0.23996946 # occ.  2.00000000
 
ion      s     py     pz     px    dxy    dyz    dz2    dxz  x2-y2    tot
    1  0.000  0.025  0.001  0.000  0.012  0.000  0.000  0.000  0.000  0.038
    2  0.000  0.225  0.005  0.000  0.014  0.000  0.000  0.000  0.000  0.244
    3  0.000  0.178  0.006  0.000  0.000  0.000  0.000  0.000  0.000  0.184
    4  0.000  0.288  0.004  0.000  0.000  0.000  0.000  0.000  0.000  0.292
    5  0.000  0.094  0.002  0.000  0.000  0.000  0.000  0.000  0.000  0.096
tot    0.000  0.809  0.017  0.000  0.026  0.000  0.000  0.001  0.000  0.853
 
band    10 # energy    0.23996946 # occ.  2.00000000
 
ion      s     py     pz     px    dxy    dyz    dz2    dxz  x2-y2    tot
    1  0.000  0.001  0.025  0.000  0.000  0.000  0.000  0.012  0.000  0.038
    2  0.000  0.005  0.225  0.000  0.000  0.000  0.000  0.014  0.000  0.244
    3  0.000  0.004  0.288  0.000  0.000  0.000  0.000  0.000  0.000  0.292
    4  0.000  0.006  0.178  0.000  0.000  0.000  0.000  0.000  0.000  0.184
    5  0.000  0.002  0.094  0.000  0.000  0.000  0.000  0.000  0.000  0.096
tot    0.000  0.017  0.809  0.000  0.001  0.000  0.000  0.026  0.000  0.853
 
band    11 # energy    1.42249704 # occ.  2.00000000
 
ion      s     py     pz     px    dxy    dyz    dz2    dxz  x2-y2    tot
    1  0.000  0.002  0.004  0.000  0.004  0.000  0.000  0.007  0.000  0.018
    2  0.000  0.002  0.003  0.000  0.065  0.000  0.000  0.114  0.000  0.184
    3  0.000  0.049  0.008  0.000  0.000  0.000  0.000  0.000  0.000  0.057
    4  0.000  0.005  0.085  0.000  0.000  0.000  0.000  0.000  0.000  0.090
    5  0.000  0.144  0.252  0.000  0.000  0.000  0.000  0.000  0.000  0.396
tot    0.000  0.202  0.353  0.000  0.069  0.000  0.000  0.122  0.000  0.745
 
band    12 # energy    1.42249704 # occ.  2.00000000
 
ion      s     py     pz     px    dxy    dyz    dz2    dxz  x2-y2    tot
    1  0.000  0.004  0.002  0.000  0.007  0.000  0.000  0.004  0.000  0.018
    2  0.000  0.003  0.002  0.000  0.114  0.000  0.000  0.065  0.000  0.184
    3  0.000  0.085  0.005  0.000  0.000  0.000  0.000  0.000  0.000  0.090
    4  0.000  0.008  0.049  0.000  0.000  0.000  0.000  0.000  0.000  0.057
    5  0.000  0.252  0.144  0.000  0.000  0.000  0.000  0.000  0.000  0.396
tot    0.000  0.353  0.202  0.000  0.122  0.000  0.000  0.069  0.000  0.745
 
band    13 # energy    1.70267363 # occ.  2.00000000
 
ion      s     py     pz     px    dxy    dyz    dz2    dxz  x2-y2    tot
    1  0.000  0.000  0.000  0.000  0.000  0.000  0.029  0.000  0.010  0.038
    2  0.000  0.000  0.000  0.000  0.000  0.000  0.000  0.000  0.000  0.000
    3  0.000  0.000  0.000  0.311  0.000  0.000  0.000  0.000  0.000  0.311
    4  0.000  0.000  0.000  0.311  0.000  0.000  0.000  0.000  0.000  0.311
    5  0.000  0.000  0.000  0.000  0.000  0.000  0.000  0.000  0.000  0.000
tot    0.001  0.000  0.000  0.621  0.000  0.000  0.029  0.000  0.010  0.660
 
band    14 # energy    1.76464006 # occ.  2.00000000
 
ion      s     py     pz     px    dxy    dyz    dz2    dxz  x2-y2    tot
    1  0.017  0.000  0.000  0.011  0.000  0.000  0.000  0.000  0.000  0.028
    2  0.011  0.000  0.000  0.000  0.000  0.000  0.018  0.000  0.054  0.082
    3  0.001  0.000  0.000  0.242  0.000  0.000  0.000  0.000  0.000  0.243
    4  0.001  0.000  0.000  0.242  0.000  0.000  0.000  0.000  0.000  0.243
    5  0.026  0.000  0.000  0.125  0.000  0.000  0.000  0.000  0.000  0.151
tot    0.056  0.000  0.000  0.620  0.000  0.000  0.018  0.000  0.054  0.747
 
band    15 # energy    2.87267589 # occ.  2.00000000
 
ion      s     py     pz     px    dxy    dyz    dz2    dxz  x2-y2    tot
    1  0.000  0.003  0.003  0.000  0.003  0.000  0.000  0.003  0.000  0.012
    2  0.000  0.035  0.039  0.000  0.012  0.000  0.000  0.013  0.000  0.099
    3  0.000  0.156  0.203  0.000  0.000  0.000  0.000  0.000  0.000  0.359
    4  0.000  0.184  0.172  0.000  0.000  0.000  0.000  0.000  0.000  0.356
    5  0.000  0.013  0.015  0.000  0.000  0.000  0.000  0.000  0.000  0.028
tot    0.000  0.392  0.431  0.000  0.014  0.000  0.000  0.016  0.000  0.853
 
band    16 # energy    2.87267589 # occ.  2.00000000
 
ion      s     py     pz     px    dxy    dyz    dz2    dxz  x2-y2    tot
    1  0.000  0.003  0.003  0.000  0.003  0.000  0.000  0.003  0.000  0.012
    2  0.000  0.039  0.035  0.000  0.013  0.000  0.000  0.012  0.000  0.099
    3  0.000  0.172  0.184  0.000  0.000  0.000  0.000  0.000  0.000  0.356
    4  0.000  0.203  0.156  0.000  0.000  0.000  0.000  0.000  0.000  0.359
    5  0.000  0.015  0.013  0.000  0.000  0.000  0.000  0.000  0.000  0.028
tot    0.000  0.431  0.392  0.000  0.016  0.000  0.000  0.014  0.000  0.853
 
band    17 # energy    4.56495197 # occ.  2.00000000
 
ion      s     py     pz     px    dxy    dyz    dz2    dxz  x2-y2    tot
    1  0.000  0.000  0.000  0.000  0.000  0.009  0.000  0.000  0.000  0.009
    2  0.000  0.000  0.000  0.000  0.000  0.908  0.000  0.000  0.000  0.908
    3  0.000  0.000  0.000  0.000  0.000  0.000  0.000  0.000  0.000  0.000
    4  0.000  0.000  0.000  0.000  0.000  0.000  0.000  0.000  0.000  0.000
    5  0.000  0.000  0.000  0.000  0.000  0.000  0.000  0.000  0.000  0.000
tot    0.000  0.000  0.000  0.000  0.000  0.917  0.000  0.000  0.000  0.917
 
band    18 # energy    5.73636585 # occ.  0.91044571
 
ion      s     py     pz     px    dxy    dyz    dz2    dxz  x2-y2    tot
    1  0.000  0.000  0.000  0.000  0.001  0.000  0.000  0.005  0.000  0.006
    2  0.000  0.000  0.000  0.000  0.104  0.000  0.000  0.613  0.000  0.717
    3  0.000  0.000  0.011  0.000  0.000  0.000  0.000  0.000  0.000  0.012
    4  0.000  0.002  0.002  0.000  0.000  0.000  0.000  0.000  0.000  0.004
    5  0.000  0.024  0.143  0.000  0.000  0.000  0.000  0.000  0.000  0.167
tot    0.000  0.027  0.157  0.000  0.105  0.000  0.000  0.618  0.000  0.906
 
band    19 # energy    5.73636585 # occ.  0.91044571
 
ion      s     py     pz     px    dxy    dyz    dz2    dxz  x2-y2    tot
    1  0.000  0.000  0.000  0.000  0.005  0.000  0.000  0.001  0.000  0.006
    2  0.000  0.000  0.000  0.000  0.613  0.000  0.000  0.104  0.000  0.717
    3  0.000  0.002  0.002  0.000  0.000  0.000  0.000  0.000  0.000  0.004
    4  0.000  0.011  0.000  0.000  0.000  0.000  0.000  0.000  0.000  0.012
    5  0.000  0.143  0.024  0.000  0.000  0.000  0.000  0.000  0.000  0.167
tot    0.000  0.157  0.027  0.000  0.618  0.000  0.000  0.105  0.000  0.906
 
band    20 # energy    6.96183688 # occ. -0.00000000
 
ion      s     py     pz     px    dxy    dyz    dz2    dxz  x2-y2    tot
    1  0.000  0.000  0.000  0.000  0.000  0.000  0.002  0.000  0.001  0.002
    2  0.000  0.000  0.000  0.000  0.000  0.000  0.689  0.000  0.230  0.919
    3  0.025  0.000  0.000  0.000  0.000  0.000  0.000  0.000  0.000  0.025
    4  0.025  0.000  0.000  0.000  0.000  0.000  0.000  0.000  0.000  0.025
    5  0.000  0.000  0.000  0.000  0.000  0.000  0.000  0.000  0.000  0.000
tot    0.049  0.000  0.000  0.001  0.000  0.000  0.691  0.000  0.230  0.970
 

 k-point     3 :    0.50000000 0.00000000 0.00000000     weight = 0.04687500

band     1 # energy  -28.53431083 # occ.  2.00000000
 
ion      s     py     pz     px    dxy    dyz    dz2    dxz  x2-y2    tot
    1  0.973  0.000  0.000  0.000  0.000  0.000  0.000  0.000  0.000  0.973
    2  0.000  0.000  0.000  0.000  0.000  0.000  0.000  0.000  0.000  0.000
    3  0.000  0.000  0.000  0.000  0.000  0.000  0.000  0.000  0.000  0.000
    4  0.000  0.000  0.000  0.000  0.000  0.000  0.000  0.000  0.000  0.000
    5  0.001  0.000  0.000  0.000  0.000  0.000  0.000  0.000  0.000  0.001
tot    0.973  0.000  0.000  0.001  0.000  0.000  0.000  0.000  0.000  0.974
 
band     2 # energy  -14.36443516 # occ.  2.00000000
 
ion      s     py     pz     px    dxy    dyz    dz2    dxz  x2-y2    tot
    1  0.000  0.000  0.000  0.148  0.000  0.000  0.000  0.000  0.000  0.148
    2  0.098  0.000  0.000  0.000  0.000  0.000  0.008  0.000  0.024  0.131
    3  0.289  0.000  0.000  0.000  0.000  0.000  0.000  0.000  0.000  0.289
    4  0.289  0.000  0.000  0.000  0.000  0.000  0.000  0.000  0.000  0.289
    5  0.000  0.000  0.000  0.001  0.000  0.000  0.000  0.000  0.000  0.001
tot    0.676  0.000  0.000  0.149  0.000  0.000  0.008  0.000  0.024  0.857
 
band     3 # energy  -12.75195083 # occ.  2.00000000
 
ion      s     py     pz     px    dxy    dyz    dz2    dxz  x2-y2    tot
    1  0.000  0.000  0.000  0.000  0.000  0.000  0.000  0.000  0.000  0.000
    2  0.000  0.000  0.000  0.000  0.000  0.000  0.121  0.000  0.040  0.162
    3  0.390  0.000  0.000  0.000  0.000  0.000  0.000  0.000  0.000  0.390
    4  0.390  0.000  0.000  0.000  0.000  0.000  0.000  0.000  0.000  0.390
    5  0.000  0.000  0.000  0.000  0.000  0.000  0.000  0.000  0.000  0.000
tot    0.780  0.000  0.000  0.000  0.000  0.000  0.121  0.000  0.040  0.941
 
band     4 # energy  -12.63779319 # occ.  2.00000000
 
ion      s     py     pz     px    dxy    dyz    dz2    dxz  x2-y2    tot
    1  0.006  0.000  0.000  0.000  0.000  0.000  0.000  0.000  0.001  0.008
    2  0.000  0.000  0.000  0.109  0.000  0.000  0.000  0.000  0.000  0.109
    3  0.000  0.000  0.000  0.001  0.000  0.000  0.000  0.000  0.000  0.001
    4  0.000  0.000  0.000  0.001  0.000  0.000  0.000  0.000  0.000  0.001
    5  0.763  0.000  0.000  0.000  0.000  0.000  0.000  0.000  0.000  0.763
tot    0.769  0.000  0.000  0.111  0.000  0.000  0.000  0.000  0.001  0.881
 
band     5 # energy  -10.63659437 # occ.  2.00000000
 
ion      s     py     pz     px    dxy    dyz    dz2    dxz  x2-y2    tot
    1  0.000  0.909  0.032  0.000  0.000  0.000  0.000  0.000  0.000  0.941
    2  0.000  0.000  0.000  0.000  0.003  0.000  0.000  0.000  0.000  0.003
    3  0.000  0.000  0.000  0.000  0.000  0.000  0.000  0.000  0.000  0.000
    4  0.000  0.000  0.000  0.000  0.000  0.000  0.000  0.000  0.000  0.000
    5  0.000  0.004  0.000  0.000  0.000  0.000  0.000  0.000  0.000  0.004
tot    0.000  0.913  0.032  0.000  0.003  0.000  0.000  0.000  0.000  0.948
 
band     6 # energy  -10.63659437 # occ.  2.00000000
 
ion      s     py     pz     px    dxy    dyz    dz2    dxz  x2-y2    tot
    1  0.000  0.032  0.909  0.000  0.000  0.000  0.000  0.000  0.000  0.941
    2  0.000  0.000  0.000  0.000  0.000  0.000  0.000  0.003  0.000  0.003
    3  0.000  0.000  0.000  0.000  0.000  0.000  0.000  0.000  0.000  0.000
    4  0.000  0.000  0.000  0.000  0.000  0.000  0.000  0.000  0.000  0.000
    5  0.000  0.000  0.004  0.000  0.000  0.000  0.000  0.000  0.000  0.004
tot    0.000  0.032  0.913  0.000  0.000  0.000  0.000  0.003  0.000  0.948
 
band     7 # energy   -9.95932120 # occ.  2.00000000
 
ion      s     py     pz     px    dxy    dyz    dz2    dxz  x2-y2    tot
    1  0.000  0.000  0.000  0.796  0.000  0.000  0.000  0.000  0.000  0.796
    2  0.016  0.000  0.000  0.000  0.000  0.000  0.003  0.000  0.010  0.030
    3  0.080  0.000  0.000  0.000  0.000  0.000  0.000  0.000  0.000  0.080
    4  0.080  0.000  0.000  0.000  0.000  0.000  0.000  0.000  0.000  0.080
    5  0.000  0.000  0.000  0.000  0.000  0.000  0.000  0.000  0.000  0.000
tot    0.176  0.000  0.000  0.796  0.000  0.000  0.003  0.000  0.010  0.985
 
band     8 # energy   -1.36721455 # occ.  2.00000000
 
ion      s     py     pz     px    dxy    dyz    dz2    dxz  x2-y2    tot
    1  0.000  0.000  0.000  0.003  0.000  0.000  0.000  0.000  0.000  0.003
    2  0.115  0.000  0.000  0.000  0.000  0.000  0.106  0.000  0.318  0.539
    3  0.001  0.000  0.000  0.000  0.000  0.000  0.000  0.000  0.000  0.001
    4  0.001  0.000  0.000  0.000  0.000  0.000  0.000  0.000  0.000  0.001
    5  0.000  0.000  0.000  0.504  0.000  0.000  0.000  0.000  0.000  0.504
tot    0.117  0.000  0.000  0.507  0.000  0.000  0.106  0.000  0.318  1.048
 
band     9 # energy    0.19286940 # occ.  2.00000000
 
ion      s     py     pz     px    dxy    dyz    dz2    dxz  x2-y2    tot
    1  0.000  0.000  0.000  0.000  0.014  0.000  0.000  0.023  0.000  0.037
    2  0.000  0.080  0.135  0.000  0.000  0.000  0.000  0.000  0.000  0.215
    3  0.000  0.107  0.176  0.000  0.000  0.000  0.000  0.000  0.000  0.283
    4  0.000  0.104  0.182  0.000  0.000  0.000  0.000  0.000  0.000  0.285
    5  0.000  0.000  0.000  0.000  0.000  0.000  0.000  0.000  0.000  0.000
tot    0.000  0.290  0.493  0.000  0.014  0.000  0.000  0.023  0.000  0.820
 
band    10 # energy    0.19286940 # occ.  2.00000000
 
ion      s     py     pz     px    dxy    dyz    dz2    dxz  x2-y2    tot
    1  0.000  0.000  0.000  0.000  0.023  0.000  0.000  0.014  0.000  0.037
    2  0.000  0.135  0.080  0.000  0.000  0.000  0.000  0.000  0.000  0.215
    3  0.000  0.182  0.104  0.000  0.000  0.000  0.000  0.000  0.000  0.285
    4  0.000  0.176  0.107  0.000  0.000  0.000  0.000  0.000  0.000  0.283
    5  0.000  0.000  0.000  0.000  0.000  0.000  0.000  0.000  0.000  0.000
tot    0.000  0.493  0.290  0.000  0.023  0.000  0.000  0.014  0.000  0.820
 
band    11 # energy    0.83846158 # occ.  2.00000000
 
ion      s     py     pz     px    dxy    dyz    dz2    dxz  x2-y2    tot
    1  0.000  0.008  0.019  0.000  0.000  0.000  0.000  0.000  0.000  0.027
    2  0.000  0.000  0.000  0.000  0.081  0.000  0.000  0.186  0.000  0.267