<?xml version="1.0" encoding="ISO-8859-1"?>
<modeling>
 <generator>
  <i name="program" type="string">vasp </i>
  <i name="version" type="string">5.4.4.18Apr17-6-g9f103f2a35  </i>
  <i name="subversion" type="string">(build Oct 08 2019 13:33:54) complex            parallel </i>
  <i name="platform" type="string">LinuxIFC </i>
  <i name="date" type="string">2019 10 15 </i>
  <i name="time" type="string">12:40:00 </i>
 </generator>
 <incar>
  <i type="string" name="PREC">accurate</i>
  <i type="string" name="ALGO"> Fast</i>
  <i type="int" name="ISPIN">     1</i>
  <i type="int" name="NELM">   100</i>
  <i type="int" name="IBRION">     2</i>
  <i name="EDIFF">      0.00000001</i>
  <i name="EDIFFG">     -0.00100000</i>
  <i type="int" name="NSW">   100</i>
  <i type="int" name="ISIF">     3</i>
  <i name="ENCUT">    600.00000000</i>
  <i type="string" name="LREAL"> Auto</i>
  <i type="int" name="ISMEAR">     1</i>
  <i name="SIGMA">      0.05000000</i>
  <i type="int" name="LMAXMIX">     6</i>
  <i type="logical" name="LWAVE"> F  </i>
  <i type="int" name="LORBIT">    11</i>
  <v type="int" name="KPOINT_BSE">    -1     0     0     0</v>
  <i type="int" name="NELM">   100</i>
 </incar>
 <structure name="primitive_cell" >
  <crystal>
   <varray name="basis" >
    <v>       3.84652000       0.00000000       0.00000000 </v>
    <v>       0.00000000       3.84652000       0.00000000 </v>
    <v>       0.00000000       0.00000000       3.84652000 </v>
   </varray>
   <i name="volume">     56.91201793 </i>
   <varray name="rec_basis" >
    <v>       0.25997525       0.00000000       0.00000000 </v>
    <v>       0.00000000       0.25997525       0.00000000 </v>
    <v>       0.00000000       0.00000000       0.25997525 </v>
   </varray>
  </crystal>
  <varray name="positions" >
   <v>       0.00000000       0.00000000       0.00000000 </v>
   <v>      -0.50000000      -0.50000000       0.00000000 </v>
   <v>      -0.50000000       0.00000000      -0.50000000 </v>
   <v>       0.00000000      -0.50000000      -0.50000000 </v>
   <v>      -0.50000000      -0.50000000      -0.50000000 </v>
  </varray>
 </structure>
 <varray name="primitive_index" >
  <v type="int" >        1 </v>
  <v type="int" >        3 </v>
  <v type="int" >        4 </v>
  <v type="int" >        5 </v>
  <v type="int" >        2 </v>
 </varray>
 <kpoints>
  <generation param="Gamma">
   <v type="int" name="divisions">       4        4        4 </v>
   <v name="usershift">      0.00000000       0.00000000       0.00000000 </v>
   <v name="genvec1">      0.25000000       0.00000000       0.00000000 </v>
   <v name="genvec2">      0.00000000       0.25000000       0.00000000 </v>
   <v name="genvec3">      0.00000000       0.00000000       0.25000000 </v>
   <v name="shift">      0.00000000       0.00000000       0.00000000 </v>
  </generation>
  <varray name="kpointlist" >
   <v>       0.00000000       0.00000000       0.00000000 </v>
   <v>       0.25000000       0.00000000       0.00000000 </v>
   <v>       0.50000000       0.00000000       0.00000000 </v>
   <v>       0.25000000       0.25000000       0.00000000 </v>
   <v>       0.50000000       0.25000000       0.00000000 </v>
   <v>       0.50000000       0.50000000       0.00000000 </v>
   <v>       0.25000000       0.25000000       0.25000000 </v>
   <v>       0.50000000       0.25000000       0.25000000 </v>
   <v>       0.50000000       0.50000000       0.25000000 </v>
   <v>       0.50000000       0.50000000       0.50000000 </v>
  </varray>
  <varray name="weights" >
   <v>       0.01562500 </v>
   <v>       0.09375000 </v>
   <v>       0.04687500 </v>
   <v>       0.18750000 </v>
   <v>       0.18750000 </v>
   <v>       0.04687500 </v>
   <v>       0.12500000 </v>
   <v>       0.18750000 </v>
   <v>       0.09375000 </v>
   <v>       0.01562500 </v>
  </varray>
 </kpoints>
 <parameters>
  <separator name="general" >
   <i type="string" name="SYSTEM">unknown system</i>
   <i type="logical" name="LCOMPAT"> F  </i>
  </separator>
  <separator name="electronic" >
   <i type="string" name="PREC">accura</i>
   <i name="ENMAX">    600.00000000</i>
   <i name="ENAUG">    605.39200000</i>
   <i name="EDIFF">      0.00000001</i>
   <i type="int" name="IALGO">    68</i>
   <i type="int" name="IWAVPR">    11</i>
   <i type="int" name="NBANDS">    20</i>
   <i name="NELECT">     33.00000000</i>
   <i type="int" name="TURBO">     0</i>
   <i type="int" name="IRESTART">     0</i>
   <i type="int" name="NREBOOT">     0</i>
   <i type="int" name="NMIN">     0</i>
   <i name="EREF">      0.00000000</i>
   <separator name="electronic smearing" >
    <i type="int" name="ISMEAR">     1</i>
    <i name="SIGMA">      0.05000000</i>
    <i name="KSPACING">      0.50000000</i>
    <i type="logical" name="KGAMMA"> T  </i>
   </separator>
   <separator name="electronic projectors" >
    <i type="logical" name="LREAL"> T  </i>
    <v name="ROPT">     -0.00025000     -0.00025000     -0.00025000</v>
    <i type="int" name="LMAXPAW">  -100</i>
    <i type="int" name="LMAXMIX">     6</i>
    <i type="logical" name="NLSPLINE"> F  </i>
   </separator>
   <separator name="electronic startup" >
    <i type="int" name="ISTART">     0</i>
    <i type="int" name="ICHARG">     2</i>
    <i type="int" name="INIWAV">     1</i>
   </separator>
   <separator name="electronic spin" >
    <i type="int" name="ISPIN">     1</i>
    <i type="logical" name="LNONCOLLINEAR"> F  </i>
    <v name="MAGMOM">      1.00000000      1.00000000      1.00000000      1.00000000      1.00000000</v>
    <i name="NUPDOWN">     -1.00000000</i>
    <i type="logical" name="LSORBIT"> F  </i>
    <v name="SAXIS">      0.00000000      0.00000000      1.00000000</v>
    <i type="logical" name="LSPIRAL"> F  </i>
    <v name="QSPIRAL">      0.00000000      0.00000000      0.00000000</v>
    <i type="logical" name="LZEROZ"> F  </i>
   </separator>
   <separator name="electronic exchange-correlation" >
    <i type="logical" name="LASPH"> F  </i>
    <i type="logical" name="LMETAGGA"> F  </i>
   </separator>
   <separator name="electronic convergence" >
    <i type="int" name="NELM">   100</i>
    <i type="int" name="NELMDL">     0</i>
    <i type="int" name="NELMIN">     2</i>
    <i name="ENINI">    600.00000000</i>
    <separator name="electronic convergence detail" >
     <i type="logical" name="LDIAG"> T  </i>
     <i type="logical" name="LSUBROT"> F  </i>
     <i name="WEIMIN">      0.00100000</i>
     <i name="EBREAK">      0.00000000</i>
     <i name="DEPER">      0.30000000</i>
     <i type="int" name="NRMM">     4</i>
     <i name="TIME">      0.40000000</i>
    </separator>
   </separator>
   <separator name="electronic mixer" >
    <i name="AMIX">      0.40000000</i>
    <i name="BMIX">      1.00000000</i>
    <i name="AMIN">      0.10000000</i>
    <i name="AMIX_MAG">      1.60000000</i>
    <i name="BMIX_MAG">      1.00000000</i>
    <separator name="electronic mixer details" >
     <i type="int" name="IMIX">     4</i>
     <i type="logical" name="MIXFIRST"> F  </i>
     <i type="int" name="MAXMIX">   -45</i>
     <i name="WC">    100.00000000</i>
     <i type="int" name="INIMIX">     1</i>
     <i type="int" name="MIXPRE">     1</i>
     <i type="int" name="MREMOVE">     5</i>
    </separator>
   </separator>
   <separator name="electronic dipolcorrection" >
    <i type="logical" name="LDIPOL"> F  </i>
    <i type="logical" name="LMONO"> F  </i>
    <i type="int" name="IDIPOL">     0</i>
    <i name="EPSILON">      1.00000000</i>
    <v name="DIPOL">   -100.00000000   -100.00000000   -100.00000000</v>
    <i name="EFIELD">      0.00000000</i>
   </separator>
  </separator>
  <separator name="grids" >
   <i type="int" name="NGX">    32</i>
   <i type="int" name="NGY">    32</i>
   <i type="int" name="NGZ">    32</i>
   <i type="int" name="NGXF">    64</i>
   <i type="int" name="NGYF">    64</i>
   <i type="int" name="NGZF">    64</i>
   <i type="logical" name="ADDGRID"> F  </i>
  </separator>
  <separator name="ionic" >
   <i type="int" name="NSW">   100</i>
   <i type="int" name="IBRION">     2</i>
   <i type="int" name="MDALGO">     0</i>
   <i type="int" name="ISIF">     3</i>
   <i name="PSTRESS">      0.00000000</i>
   <i name="EDIFFG">     -0.00100000</i>
   <i type="int" name="NFREE">     1</i>
   <i name="POTIM">      0.50000000</i>
   <i name="SMASS">     -3.00000000</i>
   <i name="SCALEE">      1.00000000</i>
  </separator>
  <separator name="ionic md" >
   <i name="TEBEG">      0.00010000</i>
   <i name="TEEND">      0.00010000</i>
   <i type="int" name="NBLOCK">     1</i>
   <i type="int" name="KBLOCK">   100</i>
   <i type="int" name="NPACO">   256</i>
   <i name="APACO">     16.00000000</i>
  </separator>
  <separator name="symmetry" >
   <i type="int" name="ISYM">     2</i>
   <i name="SYMPREC">      0.00001000</i>
  </separator>
  <separator name="dos" >
   <i type="int" name="LORBIT">    11</i>
   <v name="RWIGS">     -1.00000000     -1.00000000     -1.00000000</v>
   <i type="int" name="NEDOS">   301</i>
   <i name="EMIN">     10.00000000</i>
   <i name="EMAX">    -10.00000000</i>
   <i name="EFERMI">      0.00000000</i>
  </separator>
  <separator name="writing" >
   <i type="int" name="NWRITE">     2</i>
   <i type="logical" name="LWAVE"> F  </i>
   <i type="logical" name="LDOWNSAMPLE"> F  </i>
   <i type="logical" name="LCHARG"> T  </i>
   <i type="logical" name="LPARD"> F  </i>
   <i type="logical" name="LVTOT"> F  </i>
   <i type="logical" name="LVHAR"> F  </i>
   <i type="logical" name="LELF"> F  </i>
   <i type="logical" name="LOPTICS"> F  </i>
   <v name="STM">      0.00000000      0.00000000      0.00000000      0.00000000      0.00000000      0.00000000      0.00000000</v>
  </separator>
  <separator name="performance" >
   <i type="int" name="NPAR">     4</i>
   <i type="int" name="NSIM">     4</i>
   <i type="int" name="NBLK">    -1</i>
   <i type="logical" name="LPLANE"> T  </i>
   <i type="logical" name="LSCALAPACK"> T  </i>
   <i type="logical" name="LSCAAWARE"> F  </i>
   <i type="logical" name="LSCALU"> F  </i>
   <i type="logical" name="LASYNC"> F  </i>
   <i type="logical" name="LORBITALREAL"> F  </i>
  </separator>
  <separator name="miscellaneous" >
   <i type="int" name="IDIOT">     3</i>
   <i type="int" name="ISPECIAL">     0</i>
   <i type="logical" name="LMUSIC"> F  </i>
   <v name="POMASS">     87.62000000     50.94100000     16.00000000</v>
   <v name="DARWINR">      0.00000000      0.00000000      0.00000000</v>
   <v name="DARWINV">      1.00000000      1.00000000      1.00000000</v>
   <i type="logical" name="LCORR"> T  </i>
  </separator>
  <i type="logical" name="GGA_COMPAT"> T  </i>
  <i type="logical" name="LBERRY"> F  </i>
  <i type="int" name="ICORELEVEL">     0</i>
  <i type="logical" name="LDAU"> F  </i>
  <i type="int" name="I_CONSTRAINED_M">     0</i>
  <separator name="electronic exchange-correlation" >
   <i type="string" name="GGA">--</i>
   <i type="int" name="VOSKOWN">     0</i>
   <i type="logical" name="LHFCALC"> F  </i>
   <i type="string" name="PRECFOCK"></i>
   <i type="logical" name="LSYMGRAD"> F  </i>
   <i type="logical" name="LHFONE"> F  </i>
   <i type="logical" name="LRHFCALC"> F  </i>
   <i type="logical" name="LTHOMAS"> F  </i>
   <i type="logical" name="LMODELHF"> F  </i>
   <i name="ENCUT4O">     -1.00000000</i>
   <i type="int" name="EXXOEP">     0</i>
   <i type="int" name="FOURORBIT">     0</i>
   <i name="AEXX">      0.00000000</i>
   <i name="HFALPHA">      0.00000000</i>
   <i name="MCALPHA">      0.00000000</i>
   <i name="ALDAX">      1.00000000</i>
   <i name="AGGAX">      1.00000000</i>
   <i name="ALDAC">      1.00000000</i>
   <i name="AGGAC">      1.00000000</i>
   <i type="int" name="NKREDX">     1</i>
   <i type="int" name="NKREDY">     1</i>
   <i type="int" name="NKREDZ">     1</i>
   <i type="logical" name="SHIFTRED"> F  </i>
   <i type="logical" name="ODDONLY"> F  </i>
   <i type="logical" name="EVENONLY"> F  </i>
   <i type="int" name="LMAXFOCK">     0</i>
   <i type="int" name="NMAXFOCKAE">     0</i>
   <i type="logical" name="LFOCKAEDFT"> F  </i>
   <i name="HFSCREEN">      0.00000000</i>
   <i name="HFSCREENC">      0.00000000</i>
   <i type="int" name="NBANDSGWLOW">     0</i>
  </separator>
  <separator name="vdW DFT" >
   <i type="logical" name="LUSE_VDW"> F  </i>
   <i name="Zab_VDW">     -0.84910000</i>
   <i name="PARAM1">      0.12340000</i>
   <i name="PARAM2">      1.00000000</i>
   <i name="PARAM3">      0.00000000</i>
  </separator>
  <separator name="model GW" >
   <i type="int" name="MODEL_GW">     0</i>
   <i name="MODEL_EPS0">      6.82944215</i>
   <i name="MODEL_ALPHA">      1.00000000</i>
  </separator>
  <separator name="linear response parameters" >
   <i type="logical" name="LEPSILON"> F  </i>
   <i type="logical" name="LRPA"> F  </i>
   <i type="logical" name="LNABLA"> F  </i>
   <i type="logical" name="LVEL"> F  </i>
   <i type="int" name="KINTER">     0</i>
   <i name="CSHIFT">      0.10000000</i>
   <i name="OMEGAMAX">     -1.00000000</i>
   <i name="DEG_THRESHOLD">      0.00200000</i>
   <i name="RTIME">     -0.10000000</i>
   <i name="WPLASMAI">      0.00000000</i>
   <v name="DFIELD">      0.00000000      0.00000000      0.00000000</v>
   <v name="WPLASMA">      0.00000000      0.00000000      0.00000000      0.00000000      0.00000000      0.00000000      0.00000000      0.00000000      0.00000000</v>
  </separator>
  <separator name="orbital magnetization" >
   <i type="logical" name="NUCIND"> F  </i>
   <v name="MAGPOS">      0.00000000      0.00000000      0.00000000</v>
   <i type="logical" name="LNICSALL"> T  </i>
   <i type="logical" name="ORBITALMAG"> F  </i>
   <i type="logical" name="LMAGBLOCH"> F  </i>
   <i type="logical" name="LCHIMAG"> F  </i>
   <i type="logical" name="LGAUGE"> T  </i>
   <i type="int" name="MAGATOM">     0</i>
   <v name="MAGDIPOL">      0.00000000      0.00000000      0.00000000</v>
   <v name="AVECCONST">      0.00000000      0.00000000      0.00000000</v>
  </separator>
  <separator name="response functions" >
   <i type="logical" name="LADDER"> F  </i>
   <i type="logical" name="LRPAFORCE"> F  </i>
   <i type="logical" name="LFXC"> F  </i>
   <i type="logical" name="LHARTREE"> T  </i>
   <i type="int" name="IBSE">     0</i>
   <v type="int" name="KPOINT">    -1     0     0     0</v>
   <i type="logical" name="LTCTE"> F  </i>
   <i type="logical" name="LTETE"> F  </i>
   <i type="logical" name="LTRIPLET"> F  </i>
   <i type="logical" name="LFXCEPS"> F  </i>
   <i type="logical" name="LFXHEG"> F  </i>
   <i type="int" name="NATURALO">     2</i>
   <i type="logical" name="L2ORDER"> F  </i>
   <i type="logical" name="LMP2LT"> F  </i>
   <i type="logical" name="LUSEW"> F  </i>
   <i name="ENCUTGW">     -2.00000000</i>
   <i name="ENCUTGWSOFT">     -2.00000000</i>
   <i name="ENCUTLF">     -1.00000000</i>
   <i type="int" name="LMAXMP2">    -1</i>
   <i name="SCISSOR">      0.00000000</i>
   <i type="int" name="NOMEGA">     0</i>
   <i type="int" name="NOMEGAR">     0</i>
   <i type="int" name="NBANDSGW">    -1</i>
   <i type="int" name="NBANDSO">    -1</i>
   <i type="int" name="NBANDSV">    -1</i>
   <i type="int" name="NELM">   100</i>
   <i type="int" name="NELMHF">     1</i>
   <i type="int" name="DIM">     3</i>
   <i type="int" name="ANTIRES">     0</i>
   <i name="OMEGAMAX">    -30.00000000</i>
   <i name="OMEGAMIN">    -30.00000000</i>
   <i name="OMEGATL">   -200.00000000</i>
   <i type="int" name="OMEGAGRID">   140</i>
   <i name="CSHIFT">     -0.10000000</i>
   <i type="logical" name="SELFENERGY"> F  </i>
   <i type="logical" name="LSPECTRAL"> F  </i>
   <i type="logical" name="LSPECTRALGW"> F  </i>
   <i type="logical" name="LSINGLES"> F  </i>
   <i type="logical" name="LFERMIGW"> F  </i>
   <i type="logical" name="ODDONLYGW"> F  </i>
   <i type="logical" name="EVENONLYGW"> F  </i>
   <i type="int" name="NKREDLFX">     1</i>
   <i type="int" name="NKREDLFY">     1</i>
   <i type="int" name="NKREDLFZ">     1</i>
   <i type="int" name="MAXMEM">  2800</i>
   <i type="int" name="TELESCOPE">     0</i>
   <i type="int" name="TAUPAR">     1</i>
   <i type="int" name="OMEGAPAR">    -1</i>
   <i name="LAMBDA">      1.00000000</i>
  </separator>
  <separator name="External order field" >
   <i name="OFIELD_KAPPA">      0.00000000</i>
   <v name="OFIELD_K">      0.00000000      0.00000000      0.00000000</v>
   <i name="OFIELD_Q6_NEAR">      0.00000000</i>
   <i name="OFIELD_Q6_FAR">      0.00000000</i>
   <i name="OFIELD_A">      0.00000000</i>
  </separator>
 </parameters>
 <atominfo>
  <atoms>       5 </atoms>
  <types>       3 </types>
  <array name="atoms" >
   <dimension dim="1">ion</dimension>
   <field type="string">element</field>
   <field type="int">atomtype</field>
   <set>
    <rc><c>Sr</c><c>   1</c></rc>
    <rc><c>V </c><c>   2</c></rc>
    <rc><c>O </c><c>   3</c></rc>
    <rc><c>O </c><c>   3</c></rc>
    <rc><c>O </c><c>   3</c></rc>
   </set>
  </array>
  <array name="atomtypes" >
   <dimension dim="1">type</dimension>
   <field type="int">atomspertype</field>
   <field type="string">element</field>
   <field>mass</field>
   <field>valence</field>
   <field type="string">pseudopotential</field>
   <set>
    <rc><c>   1</c><c>Sr</c><c>     87.62000000</c><c>     10.00000000</c><c>  PAW Sr_sv 10Feb1998                   </c></rc>
    <rc><c>   1</c><c>V </c><c>     50.94100000</c><c>      5.00000000</c><c>  PAW V 07Aug2001                       </c></rc>
    <rc><c>   3</c><c>O </c><c>     16.00000000</c><c>      6.00000000</c><c>  PAW O 22Mar2012                       </c></rc>
   </set>
  </array>
 </atominfo>
 <structure name="initialpos" >
  <crystal>
   <varray name="basis" >
    <v>       3.84652000       0.00000000       0.00000000 </v>
    <v>       0.00000000       3.84652000       0.00000000 </v>
    <v>       0.00000000       0.00000000       3.84652000 </v>
   </varray>
   <i name="volume">     56.91201793 </i>
   <varray name="rec_basis" >
    <v>       0.25997525       0.00000000       0.00000000 </v>
    <v>       0.00000000       0.25997525       0.00000000 </v>
    <v>       0.00000000       0.00000000       0.25997525 </v>
   </varray>
  </crystal>
  <varray name="positions" >
   <v>       0.00000000       0.00000000       0.00000000 </v>
   <v>       0.50000000       0.50000000       0.50000000 </v>
   <v>       0.50000000       0.50000000       0.00000000 </v>
   <v>       0.50000000       0.00000000       0.50000000 </v>
   <v>       0.00000000       0.50000000       0.50000000 </v>
  </varray>
 </structure>
 <calculation>
  <scstep>
   <time name="dav">    0.43    0.44</time>
   <time name="total">    0.45    0.45</time>
   <energy>
    <i name="alphaZ">    180.95685896 </i>
    <i name="ewald">  -2047.90029510 </i>
    <i name="hartreedc">   -397.98094314 </i>
    <i name="XCdc">     75.59931925 </i>
    <i name="pawpsdc">   1872.70433278 </i>
    <i name="pawaedc">  -1818.70074873 </i>
    <i name="eentropy">     -0.00141616 </i>
    <i name="bandstr">    210.13786926 </i>
    <i name="atom">   2312.28455477 </i>
    <i name="e_fr_energy">    387.09953188 </i>
    <i name="e_wo_entrp">    387.10094804 </i>
    <i name="e_0_energy">    387.10000393 </i>
   </energy>
  </scstep>
  <scstep>
   <time name="dav">    0.44    0.45</time>
   <time name="total">    0.44    0.45</time>
   <energy>
    <i name="e_fr_energy">     26.36592323 </i>
    <i name="e_wo_entrp">     26.36696105 </i>
    <i name="e_0_energy">     26.36626917 </i>
   </energy>
  </scstep>
  <scstep>
   <time name="dav">    0.62    0.63</time>
   <time name="total">    0.62    0.63</time>
   <energy>
    <i name="e_fr_energy">    -49.27125466 </i>
    <i name="e_wo_entrp">    -49.26991076 </i>
    <i name="e_0_energy">    -49.27080669 </i>
   </energy>
  </scstep>
  <scstep>
   <time name="dav">    0.58    0.59</time>
   <time name="total">    0.58    0.59</time>
   <energy>
    <i name="e_fr_energy">    -53.40930235 </i>
    <i name="e_wo_entrp">    -53.40987942 </i>
    <i name="e_0_energy">    -53.40949470 </i>
   </energy>
  </scstep>
  <scstep>
   <time name="dav">    0.64    0.64</time>
   <time name="total">    0.66    0.66</time>
   <energy>
    <i name="e_fr_energy">    -53.58894563 </i>
    <i name="e_wo_entrp">    -53.58780078 </i>
    <i name="e_0_energy">    -53.58856401 </i>
   </energy>
  </scstep>
  <scstep>
   <time name="diag">    0.03    0.03</time>
   <time name="diis">    0.34    0.35</time>
   <time name="orth">    0.00    0.00</time>
   <time name="total">    0.41    0.42</time>
   <energy>
    <i name="e_fr_energy">    -44.71610093 </i>
    <i name="e_wo_entrp">    -44.71632812 </i>
    <i name="e_0_energy">    -44.71617666 </i>
   </energy>
  </scstep>
  <scstep>
   <time name="diag">    0.03    0.03</time>
   <time name="diis">    0.37    0.37</time>
   <time name="orth">    0.00    0.00</time>
   <time name="total">    0.44    0.45</time>
   <energy>
    <i name="e_fr_energy">    -43.60160372 </i>
    <i name="e_wo_entrp">    -43.60190871 </i>
    <i name="e_0_energy">    -43.60170538 </i>
   </energy>
  </scstep>
  <scstep>
   <time name="diag">    0.03    0.03</time>
   <time name="diis">    0.35    0.36</time>
   <time name="orth">    0.00    0.00</time>
   <time name="total">    0.43    0.43</time>
   <energy>
    <i name="e_fr_energy">    -43.23441804 </i>
    <i name="e_wo_entrp">    -43.23212369 </i>
    <i name="e_0_energy">    -43.23365326 </i>
   </energy>
  </scstep>
  <scstep>
   <time name="diag">    0.03    0.03</time>
   <time name="diis">    0.40    0.41</time>
   <time name="orth">    0.00    0.00</time>
   <time name="total">    0.48    0.49</time>
   <energy>
    <i name="e_fr_energy">    -43.26035539 </i>
    <i name="e_wo_entrp">    -43.25801153 </i>
    <i name="e_0_energy">    -43.25957410 </i>
   </energy>
  </scstep>
  <scstep>
   <time name="diag">    0.03    0.03</time>
   <time name="diis">    0.37    0.37</time>
   <time name="orth">    0.00    0.00</time>
   <time name="total">    0.44    0.45</time>
   <energy>
    <i name="e_fr_energy">    -43.25674774 </i>
    <i name="e_wo_entrp">    -43.25441732 </i>
    <i name="e_0_energy">    -43.25597094 </i>
   </energy>
  </scstep>
  <scstep>
   <time name="diag">    0.03    0.03</time>
   <time name="diis">    0.41    0.41</time>
   <time name="orth">    0.00    0.00</time>
   <time name="total">    0.48    0.49</time>
   <energy>
    <i name="e_fr_energy">    -43.25819737 </i>
    <i name="e_wo_entrp">    -43.25586701 </i>
    <i name="e_0_energy">    -43.25742059 </i>
   </energy>
  </scstep>
  <scstep>
   <time name="diag">    0.03    0.03</time>
   <time name="diis">    0.40    0.40</time>
   <time name="orth">    0.00    0.00</time>
   <time name="total">    0.47    0.48</time>
   <energy>
    <i name="e_fr_energy">    -43.25856703 </i>
    <i name="e_wo_entrp">    -43.25625694 </i>
    <i name="e_0_energy">    -43.25779700 </i>
   </energy>
  </scstep>
  <scstep>
   <time name="diag">    0.03    0.03</time>
   <time name="diis">    0.37    0.37</time>
   <time name="orth">    0.00    0.00</time>
   <time name="total">    0.45    0.45</time>
   <energy>
    <i name="e_fr_energy">    -43.25878236 </i>
    <i name="e_wo_entrp">    -43.25644785 </i>
    <i name="e_0_energy">    -43.25800419 </i>
   </energy>
  </scstep>
  <scstep>
   <time name="diag">    0.04    0.04</time>
   <time name="diis">    0.39    0.39</time>
   <time name="orth">    0.00    0.01</time>
   <time name="total">    0.47    0.48</time>
   <energy>
    <i name="e_fr_energy">    -43.25893752 </i>
    <i name="e_wo_entrp">    -43.25660819 </i>
    <i name="e_0_energy">    -43.25816108 </i>
   </energy>
  </scstep>
  <scstep>
   <time name="diag">    0.04    0.04</time>
   <time name="diis">    0.42    0.42</time>
   <time name="orth">    0.00    0.01</time>
   <time name="total">    0.50    0.50</time>
   <energy>
    <i name="e_fr_energy">    -43.25905152 </i>
    <i name="e_wo_entrp">    -43.25672253 </i>
    <i name="e_0_energy">    -43.25827519 </i>
   </energy>
  </scstep>
  <scstep>
   <time name="diag">    0.03    0.03</time>
   <time name="diis">    0.40    0.40</time>
   <time name="orth">    0.00    0.00</time>
   <time name="total">    0.47    0.47</time>
   <energy>
    <i name="e_fr_energy">    -43.25912504 </i>
    <i name="e_wo_entrp">    -43.25678983 </i>
    <i name="e_0_energy">    -43.25834663 </i>
   </energy>
  </scstep>
  <scstep>
   <time name="diag">    0.03    0.03</time>
   <time name="diis">    0.40    0.40</time>
   <time name="orth">    0.00    0.00</time>
   <time name="total">    0.47    0.47</time>
   <energy>
    <i name="e_fr_energy">    -43.25916342 </i>
    <i name="e_wo_entrp">    -43.25682910 </i>
    <i name="e_0_energy">    -43.25838531 </i>
   </energy>
  </scstep>
  <scstep>
   <time name="diag">    0.03    0.04</time>
   <time name="diis">    0.42    0.42</time>
   <time name="orth">    0.00    0.00</time>
   <time name="total">    0.50    0.50</time>
   <energy>
    <i name="e_fr_energy">    -43.25918910 </i>
    <i name="e_wo_entrp">    -43.25685570 </i>
    <i name="e_0_energy">    -43.25841130 </i>
   </energy>
  </scstep>
  <scstep>
   <time name="diag">    0.03    0.04</time>
   <time name="diis">    0.41    0.41</time>
   <time name="orth">    0.00    0.00</time>
   <time name="total">    0.48    0.49</time>
   <energy>
    <i name="e_fr_energy">    -43.25920216 </i>
    <i name="e_wo_entrp">    -43.25686936 </i>
    <i name="e_0_energy">    -43.25842456 </i>
   </energy>
  </scstep>
  <scstep>
   <time name="diag">    0.03    0.03</time>
   <time name="diis">    0.38    0.38</time>
   <time name="orth">    0.00    0.00</time>
   <time name="total">    0.45    0.45</time>
   <energy>
    <i name="e_fr_energy">    -43.25921300 </i>
    <i name="e_wo_entrp">    -43.25688016 </i>
    <i name="e_0_energy">    -43.25843539 </i>
   </energy>
  </scstep>
  <scstep>
   <time name="diag">    0.03    0.03</time>
   <time name="diis">    0.30    0.31</time>
   <time name="orth">    0.00    0.00</time>
   <time name="total">    0.37    0.38</time>
   <energy>
    <i name="e_fr_energy">    -43.25921900 </i>
    <i name="e_wo_entrp">    -43.25688617 </i>
    <i name="e_0_energy">    -43.25844139 </i>
   </energy>
  </scstep>
  <scstep>
   <time name="diag">    0.03    0.03</time>
   <time name="diis">    0.39    0.39</time>
   <time name="orth">    0.00    0.00</time>
   <time name="total">    0.46    0.46</time>
   <energy>
    <i name="e_fr_energy">    -43.25921825 </i>
    <i name="e_wo_entrp">    -43.25688736 </i>
    <i name="e_0_energy">    -43.25844129 </i>
   </energy>
  </scstep>
  <scstep>
   <time name="diag">    0.03    0.03</time>
   <time name="diis">    0.39    0.39</time>
   <time name="orth">    0.00    0.00</time>
   <time name="total">    0.46    0.46</time>
   <energy>
    <i name="e_fr_energy">    -43.25922004 </i>
    <i name="e_wo_entrp">    -43.25688951 </i>
    <i name="e_0_energy">    -43.25844320 </i>
   </energy>
  </scstep>
  <scstep>
   <time name="diag">    0.03    0.03</time>
   <time name="diis">    0.38    0.39</time>
   <time name="orth">    0.00    0.00</time>
   <time name="total">    0.45    0.46</time>
   <energy>
    <i name="e_fr_energy">    -43.25922177 </i>
    <i name="e_wo_entrp">    -43.25689103 </i>
    <i name="e_0_energy">    -43.25844486 </i>
   </energy>
  </scstep>
  <scstep>
   <time name="diag">    0.03    0.03</time>
   <time name="diis">    0.37    0.37</time>
   <time name="orth">    0.00    0.00</time>
   <time name="total">    0.45    0.45</time>
   <energy>
    <i name="e_fr_energy">    -43.25922228 </i>
    <i name="e_wo_entrp">    -43.25689214 </i>
    <i name="e_0_energy">    -43.25844557 </i>
   </energy>
  </scstep>
  <scstep>
   <time name="diag">    0.03    0.03</time>
   <time name="diis">    0.39    0.39</time>
   <time name="orth">    0.00    0.00</time>
   <time name="total">    0.46    0.47</time>
   <energy>
    <i name="e_fr_energy">    -43.25922278 </i>
    <i name="e_wo_entrp">    -43.25689329 </i>
    <i name="e_0_energy">    -43.25844628 </i>
   </energy>
  </scstep>
  <scstep>
   <time name="diag">    0.04    0.04</time>
   <time name="diis">    0.28    0.28</time>
   <time name="orth">    0.00    0.00</time>
   <time name="total">    0.36    0.37</time>
   <energy>
    <i name="e_fr_energy">    -43.25922312 </i>
    <i name="e_wo_entrp">    -43.25689370 </i>
    <i name="e_0_energy">    -43.25844664 </i>
   </energy>
  </scstep>
  <scstep>
   <time name="diag">    0.03    0.03</time>
   <time name="diis">    0.35    0.36</time>
   <time name="orth">    0.00    0.00</time>
   <time name="total">    0.42    0.43</time>
   <energy>
    <i name="e_fr_energy">    -43.25922333 </i>
    <i name="e_wo_entrp">    -43.25689345 </i>
    <i name="e_0_energy">    -43.25844670 </i>
   </energy>
  </scstep>
  <scstep>
   <time name="diag">    0.03    0.03</time>
   <time name="diis">    0.26    0.27</time>
   <time name="orth">    0.00    0.00</time>
   <time name="total">    0.33    0.34</time>
   <energy>
    <i name="e_fr_energy">    -43.25922347 </i>
    <i name="e_wo_entrp">    -43.25689359 </i>
    <i name="e_0_energy">    -43.25844684 </i>
   </energy>
  </scstep>
  <scstep>
   <time name="diag">    0.03    0.03</time>
   <time name="diis">    0.24    0.24</time>
   <time name="orth">    0.00    0.00</time>
   <time name="total">    0.31    0.31</time>
   <energy>
    <i name="e_fr_energy">    -43.25922357 </i>
    <i name="e_wo_entrp">    -43.25689367 </i>
    <i name="e_0_energy">    -43.25844694 </i>
   </energy>
  </scstep>
  <scstep>
   <time name="diag">    0.03    0.03</time>
   <time name="diis">    0.24    0.24</time>
   <time name="orth">    0.00    0.00</time>
   <time name="total">    0.31    0.31</time>
   <energy>
    <i name="e_fr_energy">    -43.25922362 </i>
    <i name="e_wo_entrp">    -43.25689376 </i>
    <i name="e_0_energy">    -43.25844700 </i>
   </energy>
  </scstep>
  <scstep>
   <time name="diag">    0.03    0.03</time>
   <time name="diis">    0.22    0.22</time>
   <time name="orth">    0.00    0.00</time>
   <time name="total">    0.29    0.30</time>
   <energy>
    <i name="e_fr_energy">    -43.25922366 </i>
    <i name="e_wo_entrp">    -43.25689379 </i>
    <i name="e_0_energy">    -43.25844704 </i>
   </energy>
  </scstep>
  <scstep>
   <time name="diag">    0.03    0.03</time>
   <time name="diis">    0.21    0.21</time>
   <time name="orth">    0.00    0.00</time>
   <time name="total">    0.29    0.29</time>
   <energy>
    <i name="e_fr_energy">    -43.25922368 </i>
    <i name="e_wo_entrp">    -43.25689383 </i>
    <i name="e_0_energy">    -43.25844706 </i>
   </energy>
  </scstep>
  <scstep>
   <time name="diag">    0.03    0.03</time>
   <time name="diis">    0.23    0.23</time>
   <time name="orth">    0.00    0.00</time>
   <time name="total">    0.30    0.30</time>
   <energy>
    <i name="e_fr_energy">    -43.25922369 </i>
    <i name="e_wo_entrp">    -43.25689385 </i>
    <i name="e_0_energy">    -43.25844708 </i>
   </energy>
  </scstep>
  <scstep>
   <time name="diag">    0.03    0.03</time>
   <time name="diis">    0.21    0.21</time>
   <time name="orth">    0.00    0.00</time>
   <time name="total">    0.26    0.26</time>
   <energy>
    <i name="alphaZ">    180.95685896 </i>
    <i name="ewald">  -2047.90029510 </i>
    <i name="hartreedc">   -422.55494642 </i>
    <i name="XCdc">     78.52550263 </i>
    <i name="pawpsdc">   3946.97692272 </i>
    <i name="pawaedc">  -3900.48904289 </i>
    <i name="eentropy">     -0.00232984 </i>
    <i name="bandstr">   -191.05644852 </i>
    <i name="atom">   2312.28455477 </i>
    <i name="e_fr_energy">    -43.25922370 </i>
    <i name="e_wo_entrp">    -43.25689386 </i>
    <i name="e_0_energy">    -43.25844709 </i>
   </energy>
  </scstep>
  <structure>
   <crystal>
    <varray name="basis" >
     <v>       3.84652000       0.00000000       0.00000000 </v>
     <v>       0.00000000       3.84652000       0.00000000 </v>
     <v>       0.00000000       0.00000000       3.84652000 </v>
    </varray>
    <i name="volume">     56.91201793 </i>
    <varray name="rec_basis" >
     <v>       0.25997525       0.00000000       0.00000000 </v>
     <v>       0.00000000       0.25997525       0.00000000 </v>
     <v>       0.00000000       0.00000000       0.25997525 </v>
    </varray>
   </crystal>
   <varray name="positions" >
    <v>       0.00000000       0.00000000       0.00000000 </v>
    <v>       0.50000000       0.50000000       0.50000000 </v>
    <v>       0.50000000       0.50000000       0.00000000 </v>
    <v>       0.50000000       0.00000000       0.50000000 </v>
    <v>       0.00000000       0.50000000       0.50000000 </v>
   </varray>
  </structure>
  <varray name="forces" >
   <v>       0.00000000       0.00000000       0.00000000 </v>
   <v>       0.00000000       0.00000000       0.00000000 </v>
   <v>       0.00000000       0.00000000       0.00000000 </v>
   <v>       0.00000000       0.00000000       0.00000000 </v>
   <v>       0.00000000       0.00000000       0.00000000 </v>
  </varray>
  <varray name="stress" >
   <v>     -96.84915521      -0.00000000      -0.00000000 </v>
   <v>       0.00000000     -96.84915521      -0.00000000 </v>
   <v>       0.00000000       0.00000000     -96.84915521 </v>
  </varray>
  <energy>
   <i name="e_fr_energy">    -43.25922370 </i>
   <i name="e_wo_entrp">    -43.25844709 </i>
   <i name="e_0_energy">     -0.00232984 </i>
  </energy>
  <time name="totalsc">   16.31   16.47</time>
 </calculation>
 <calculation>
  <scstep>
   <time name="dav">    0.52    0.52</time>
   <time name="total">    0.57    0.57</time>
   <energy>
    <i name="alphaZ">    200.24242430 </i>
    <i name="ewald">  -2118.21069770 </i>
    <i name="hartreedc">   -437.06247882 </i>
    <i name="XCdc">     82.71930300 </i>
    <i name="pawpsdc">   3946.97632241 </i>
    <i name="pawaedc">  -3900.48845298 </i>
    <i name="eentropy">     -0.00247388 </i>
    <i name="bandstr">   -131.72268197 </i>
    <i name="atom">   2312.28455477 </i>
    <i name="e_fr_energy">    -45.26418086 </i>
    <i name="e_wo_entrp">    -45.26170699 </i>
    <i name="e_0_energy">    -45.26335624 </i>
   </energy>
  </scstep>
  <scstep>
   <time name="diag">    0.03    0.03</time>
   <time name="diis">    0.35    0.36</time>
   <time name="orth">    0.00    0.00</time>
   <time name="total">    0.43    0.43</time>
   <energy>
    <i name="e_fr_energy">    -43.65540353 </i>
    <i name="e_wo_entrp">    -43.65540117 </i>
    <i name="e_0_energy">    -43.65540274 </i>
   </energy>
  </scstep>
  <scstep>
   <time name="diag">    0.04    0.04</time>
   <time name="diis">    0.32    0.32</time>
   <time name="orth">    0.00    0.00</time>
   <time name="total">    0.41    0.41</time>
   <energy>
    <i name="e_fr_energy">    -43.25542948 </i>
    <i name="e_wo_entrp">    -43.25293866 </i>
    <i name="e_0_energy">    -43.25459921 </i>
   </energy>
  </scstep>
  <scstep>
   <time name="diag">    0.03    0.03</time>
   <time name="diis">    0.37    0.37</time>
   <time name="orth">    0.00    0.00</time>
   <time name="total">    0.44    0.44</time>
   <energy>
    <i name="e_fr_energy">    -43.23080999 </i>
    <i name="e_wo_entrp">    -43.22863018 </i>
    <i name="e_0_energy">    -43.23008339 </i>
   </energy>
  </scstep>
  <scstep>
   <time name="diag">    0.03    0.03</time>
   <time name="diis">    0.37    0.37</time>
   <time name="orth">    0.00    0.00</time>
   <time name="total">    0.44    0.44</time>
   <energy>
    <i name="e_fr_energy">    -43.22962979 </i>
    <i name="e_wo_entrp">    -43.22714011 </i>
    <i name="e_0_energy">    -43.22879989 </i>
   </energy>
  </scstep>
  <scstep>
   <time name="diag">    0.03    0.03</time>
   <time name="diis">    0.38    0.39</time>
   <time name="orth">    0.00    0.00</time>
   <time name="total">    0.45    0.46</time>
   <energy>
    <i name="e_fr_energy">    -43.23415388 </i>
    <i name="e_wo_entrp">    -43.23167326 </i>
    <i name="e_0_energy">    -43.23332700 </i>
   </energy>
  </scstep>
  <scstep>
   <time name="diag">    0.03    0.03</time>
   <time name="diis">    0.38    0.39</time>
   <time name="orth">    0.00    0.00</time>
   <time name="total">    0.46    0.46</time>
   <energy>
    <i name="e_fr_energy">    -43.23532365 </i>
    <i name="e_wo_entrp">    -43.23286363 </i>
    <i name="e_0_energy">    -43.23450364 </i>
   </energy>
  </scstep>
  <scstep>
   <time name="diag">    0.03    0.03</time>
   <time name="diis">    0.39    0.39</time>
   <time name="orth">    0.00    0.00</time>
   <time name="total">    0.46    0.47</time>
   <energy>
    <i name="e_fr_energy">    -43.23541776 </i>
    <i name="e_wo_entrp">    -43.23290983 </i>
    <i name="e_0_energy">    -43.23458178 </i>
   </energy>
  </scstep>
  <scstep>
   <time name="diag">    0.03    0.03</time>
   <time name="diis">    0.38    0.38</time>
   <time name="orth">    0.00    0.00</time>
   <time name="total">    0.45    0.45</time>
   <energy>
    <i name="e_fr_energy">    -43.23551841 </i>
    <i name="e_wo_entrp">    -43.23301170 </i>
    <i name="e_0_energy">    -43.23468284 </i>
   </energy>
  </scstep>
  <scstep>
   <time name="diag">    0.03    0.03</time>
   <time name="diis">    0.39    0.39</time>
   <time name="orth">    0.00    0.00</time>
   <time name="total">    0.46    0.46</time>
   <energy>
    <i name="e_fr_energy">    -43.23564000 </i>
    <i name="e_wo_entrp">    -43.23317038 </i>
    <i name="e_0_energy">    -43.23481679 </i>
   </energy>
  </scstep>
  <scstep>
   <time name="diag">    0.03    0.03</time>
   <time name="diis">    0.37    0.37</time>
   <time name="orth">    0.00    0.00</time>
   <time name="total">    0.45    0.46</time>
   <energy>
    <i name="e_fr_energy">    -43.23564341 </i>
    <i name="e_wo_entrp">    -43.23316471 </i>
    <i name="e_0_energy">    -43.23481718 </i>
   </energy>
  </scstep>
  <scstep>
   <time name="diag">    0.03    0.03</time>
   <time name="diis">    0.48    0.50</time>
   <time name="orth">    0.00    0.00</time>
   <time name="total">    0.57    0.58</time>
   <energy>
    <i name="e_fr_energy">    -43.23561773 </i>
    <i name="e_wo_entrp">    -43.23311752 </i>
    <i name="e_0_energy">    -43.23478433 </i>
   </energy>
  </scstep>
  <scstep>
   <time name="diag">    0.07    0.07</time>
   <time name="diis">    0.31    0.46</time>
   <time name="orth">    0.00    0.00</time>
   <time name="total">    0.43    0.57</time>
   <energy>
    <i name="e_fr_energy">    -43.23563115 </i>
    <i name="e_wo_entrp">    -43.23312684 </i>
    <i name="e_0_energy">    -43.23479638 </i>
   </energy>
  </scstep>
  <scstep>
   <time name="diag">    0.03    0.03</time>
   <time name="diis">    0.38    0.38</time>
   <time name="orth">    0.00    0.00</time>
   <time name="total">    0.45    0.46</time>
   <energy>
    <i name="e_fr_energy">    -43.23563469 </i>
    <i name="e_wo_entrp">    -43.23313230 </i>
    <i name="e_0_energy">    -43.23480056 </i>
   </energy>
  </scstep>
  <scstep>
   <time name="diag">    0.03    0.03</time>
   <time name="diis">    0.39    0.39</time>
   <time name="orth">    0.00    0.00</time>
   <time name="total">    0.46    0.47</time>
   <energy>
    <i name="e_fr_energy">    -43.23563707 </i>
    <i name="e_wo_entrp">    -43.23313596 </i>
    <i name="e_0_energy">    -43.23480336 </i>
   </energy>
  </scstep>
  <scstep>
   <time name="diag">    0.03    0.03</time>
   <time name="diis">    0.40    0.41</time>
   <time name="orth">    0.00    0.00</time>
   <time name="total">    0.47    0.48</time>
   <energy>
    <i name="e_fr_energy">    -43.23563901 </i>
    <i name="e_wo_entrp">    -43.23314034 </i>
    <i name="e_0_energy">    -43.23480612 </i>
   </energy>
  </scstep>
  <scstep>
   <time name="diag">    0.03    0.03</time>
   <time name="diis">    0.36    0.36</time>
   <time name="orth">    0.00    0.00</time>
   <time name="total">    0.44    0.44</time>
   <energy>
    <i name="e_fr_energy">    -43.23563950 </i>
    <i name="e_wo_entrp">    -43.23313917 </i>
    <i name="e_0_energy">    -43.23480606 </i>
   </energy>
  </scstep>
  <scstep>
   <time name="diag">    0.03    0.03</time>
   <time name="diis">    0.33    0.33</time>
   <time name="orth">    0.00    0.00</time>
   <time name="total">    0.40    0.40</time>
   <energy>
    <i name="e_fr_energy">    -43.23564004 </i>
    <i name="e_wo_entrp">    -43.23313913 </i>
    <i name="e_0_energy">    -43.23480641 </i>
   </energy>
  </scstep>
  <scstep>
   <time name="diag">    0.03    0.03</time>
   <time name="diis">    0.28    0.28</time>
   <time name="orth">    0.00    0.00</time>
   <time name="total">    0.35    0.35</time>
   <energy>
    <i name="e_fr_energy">    -43.23564049 </i>
    <i name="e_wo_entrp">    -43.23313947 </i>
    <i name="e_0_energy">    -43.23480682 </i>
   </energy>
  </scstep>
  <scstep>
   <time name="diag">    0.03    0.03</time>
   <time name="diis">    0.25    0.25</time>
   <time name="orth">    0.00    0.00</time>
   <time name="total">    0.32    0.32</time>
   <energy>
    <i name="e_fr_energy">    -43.23564074 </i>
    <i name="e_wo_entrp">    -43.23313974 </i>
    <i name="e_0_energy">    -43.23480708 </i>
   </energy>
  </scstep>
  <scstep>
   <time name="diag">    0.03    0.03</time>
   <time name="diis">    0.23    0.23</time>
   <time name="orth">    0.00    0.00</time>
   <time name="total">    0.30    0.31</time>
   <energy>
    <i name="e_fr_energy">    -43.23564081 </i>
    <i name="e_wo_entrp">    -43.23314007 </i>
    <i name="e_0_energy">    -43.23480723 </i>
   </energy>
  </scstep>
  <scstep>
   <time name="diag">    0.03    0.03</time>
   <time name="diis">    0.24    0.24</time>
   <time name="orth">    0.00    0.00</time>
   <time name="total">    0.32    0.32</time>
   <energy>
    <i name="e_fr_energy">    -43.23564089 </i>
    <i name="e_wo_entrp">    -43.23313993 </i>
    <i name="e_0_energy">    -43.23480724 </i>
   </energy>
  </scstep>
  <scstep>
   <time name="diag">    0.03    0.03</time>
   <time name="diis">    0.24    0.24</time>
   <time name="orth">    0.00    0.00</time>
   <time name="total">    0.31    0.32</time>
   <energy>
    <i name="e_fr_energy">    -43.23564094 </i>
    <i name="e_wo_entrp">    -43.23313994 </i>
    <i name="e_0_energy">    -43.23480727 </i>
   </energy>
  </scstep>
  <scstep>
   <time name="diag">    0.03    0.03</time>
   <time name="diis">    0.22    0.22</time>
   <time name="orth">    0.00    0.00</time>
   <time name="total">    0.29    0.29</time>
   <energy>
    <i name="e_fr_energy">    -43.23564097 </i>
    <i name="e_wo_entrp">    -43.23313991 </i>
    <i name="e_0_energy">    -43.23480728 </i>
   </energy>
  </scstep>
  <scstep>
   <time name="diag">    0.03    0.03</time>
   <time name="diis">    0.23    0.23</time>
   <time name="orth">    0.00    0.00</time>
   <time name="total">    0.30    0.30</time>
   <energy>
    <i name="e_fr_energy">    -43.23564098 </i>
    <i name="e_wo_entrp">    -43.23313991 </i>
    <i name="e_0_energy">    -43.23480729 </i>
   </energy>
  </scstep>
  <scstep>
   <time name="diag">    0.03    0.03</time>
   <time name="diis">    0.20    0.20</time>
   <time name="orth">    0.00    0.00</time>
   <time name="total">    0.25    0.25</time>
   <energy>
    <i name="alphaZ">    200.24242430 </i>
    <i name="ewald">  -2118.21069770 </i>
    <i name="hartreedc">   -396.69175422 </i>
    <i name="XCdc">     79.73580408 </i>
    <i name="pawpsdc">   5010.85947313 </i>
    <i name="pawaedc">  -4965.04426351 </i>
    <i name="eentropy">     -0.00250105 </i>
    <i name="bandstr">   -166.40868079 </i>
    <i name="atom">   2312.28455477 </i>
    <i name="e_fr_energy">    -43.23564099 </i>
    <i name="e_wo_entrp">    -43.23313994 </i>
    <i name="e_0_energy">    -43.23480731 </i>
   </energy>
  </scstep>
  <structure>
   <crystal>
    <varray name="basis" >
     <v>       3.71884131      -0.00000000      -0.00000000 </v>
     <v>       0.00000000       3.71884131      -0.00000000 </v>
     <v>       0.00000000       0.00000000       3.71884131 </v>
    </varray>
    <i name="volume">     51.43075968 </i>
    <varray name="rec_basis" >
     <v>       0.26890096      -0.00000000      -0.00000000 </v>
     <v>       0.00000000       0.26890096      -0.00000000 </v>
     <v>       0.00000000       0.00000000       0.26890096 </v>
    </varray>
   </crystal>
   <varray name="positions" >
    <v>       0.00000000       0.00000000       0.00000000 </v>
    <v>       0.50000000       0.50000000       0.50000000 </v>
    <v>       0.50000000       0.50000000       0.00000000 </v>
    <v>       0.50000000       0.00000000       0.50000000 </v>
    <v>       0.00000000       0.50000000       0.50000000 </v>
   </varray>
  </structure>
  <varray name="forces" >
   <v>       0.00000000       0.00000000       0.00000000 </v>
   <v>      -0.00000000       0.00000000       0.00000000 </v>
   <v>       0.00000000       0.00000000       0.00000000 </v>
   <v>       0.00000000      -0.00000000       0.00000000 </v>
   <v>      -0.00000000       0.00000000      -0.00000000 </v>
  </varray>
  <varray name="stress" >
   <v>     131.71350519      -0.00000000      -0.00000000 </v>
   <v>      -0.00000000     131.71350519      -0.00000000 </v>
   <v>      -0.00000000       0.00000000     131.71350519 </v>
  </varray>
  <energy>
   <i name="e_fr_energy">    -43.23564099 </i>
   <i name="e_wo_entrp">    -43.23480731 </i>
   <i name="e_0_energy">     -0.00250105 </i>
  </energy>
  <time name="totalsc">   11.62   11.89</time>
 </calculation>
 <calculation>
  <scstep>
   <time name="dav">    0.49    0.49</time>
   <time name="total">    0.53    0.54</time>
   <energy>
    <i name="alphaZ">    189.87610418 </i>
    <i name="ewald">  -2081.00870228 </i>
    <i name="hartreedc">   -389.72514796 </i>
    <i name="XCdc">     77.57783966 </i>
    <i name="pawpsdc">   5010.91118038 </i>
    <i name="pawaedc">  -4965.09446308 </i>
    <i name="eentropy">     -0.00108948 </i>
    <i name="bandstr">   -198.70323113 </i>
    <i name="atom">   2312.28455477 </i>
    <i name="e_fr_energy">    -43.88295493 </i>
    <i name="e_wo_entrp">    -43.88186545 </i>
    <i name="e_0_energy">    -43.88259177 </i>
   </energy>
  </scstep>
  <scstep>
   <time name="diag">    0.03    0.03</time>
   <time name="diis">    0.34    0.34</time>
   <time name="orth">    0.00    0.00</time>
   <time name="total">    0.41    0.42</time>
   <energy>
    <i name="e_fr_energy">    -43.48841033 </i>
    <i name="e_wo_entrp">    -43.48641296 </i>
    <i name="e_0_energy">    -43.48774454 </i>
   </energy>
  </scstep>
  <scstep>
   <time name="diag">    0.03    0.03</time>
   <time name="diis">    0.33    0.33</time>
   <time name="orth">    0.00    0.00</time>
   <time name="total">    0.40    0.41</time>
   <energy>
    <i name="e_fr_energy">    -43.36423833 </i>
    <i name="e_wo_entrp">    -43.36219314 </i>
    <i name="e_0_energy">    -43.36355660 </i>
   </energy>
  </scstep>
  <scstep>
   <time name="diag">    0.03    0.03</time>
   <time name="diis">    0.36    0.37</time>
   <time name="orth">    0.00    0.00</time>
   <time name="total">    0.44    0.44</time>
   <energy>
    <i name="e_fr_energy">    -43.34342536 </i>
    <i name="e_wo_entrp">    -43.34091583 </i>
    <i name="e_0_energy">    -43.34258885 </i>
   </energy>
  </scstep>
  <scstep>
   <time name="diag">    0.03    0.03</time>
   <time name="diis">    0.37    0.38</time>
   <time name="orth">    0.00    0.00</time>
   <time name="total">    0.45    0.45</time>
   <energy>
    <i name="e_fr_energy">    -43.34349714 </i>
    <i name="e_wo_entrp">    -43.34104766 </i>
    <i name="e_0_energy">    -43.34268065 </i>
   </energy>
  </scstep>
  <scstep>
   <time name="diag">    0.03    0.03</time>
   <time name="diis">    0.36    0.37</time>
   <time name="orth">    0.00    0.00</time>
   <time name="total">    0.44    0.45</time>
   <energy>
    <i name="e_fr_energy">    -43.34461843 </i>
    <i name="e_wo_entrp">    -43.34222326 </i>
    <i name="e_0_energy">    -43.34382004 </i>
   </energy>
  </scstep>
  <scstep>
   <time name="diag">    0.03    0.03</time>
   <time name="diis">    0.37    0.37</time>
   <time name="orth">    0.00    0.00</time>
   <time name="total">    0.44    0.45</time>
   <energy>
    <i name="e_fr_energy">    -43.34466208 </i>
    <i name="e_wo_entrp">    -43.34226091 </i>
    <i name="e_0_energy">    -43.34386169 </i>
   </energy>
  </scstep>
  <scstep>
   <time name="diag">    0.04    0.04</time>
   <time name="diis">    0.36    0.37</time>
   <time name="orth">    0.00    0.00</time>
   <time name="total">    0.46    0.46</time>
   <energy>
    <i name="e_fr_energy">    -43.34468967 </i>
    <i name="e_wo_entrp">    -43.34228483 </i>
    <i name="e_0_energy">    -43.34388806 </i>
   </energy>
  </scstep>
  <scstep>
   <time name="diag">    0.04    0.04</time>
   <time name="diis">    0.38    0.38</time>
   <time name="orth">    0.00    0.00</time>
   <time name="total">    0.47    0.47</time>
   <energy>
    <i name="e_fr_energy">    -43.34470115 </i>
    <i name="e_wo_entrp">    -43.34229983 </i>
    <i name="e_0_energy">    -43.34390071 </i>
   </energy>
  </scstep>
  <scstep>
   <time name="diag">    0.03    0.03</time>
   <time name="diis">    0.36    0.36</time>
   <time name="orth">    0.00    0.00</time>
   <time name="total">    0.44    0.44</time>
   <energy>
    <i name="e_fr_energy">    -43.34470803 </i>
    <i name="e_wo_entrp">    -43.34230371 </i>
    <i name="e_0_energy">    -43.34390659 </i>
   </energy>
  </scstep>
  <scstep>
   <time name="diag">    0.03    0.03</time>
   <time name="diis">    0.38    0.39</time>
   <time name="orth">    0.00    0.00</time>
   <time name="total">    0.46    0.46</time>
   <energy>
    <i name="e_fr_energy">    -43.34471247 </i>
    <i name="e_wo_entrp">    -43.34230931 </i>
    <i name="e_0_energy">    -43.34391142 </i>
   </energy>
  </scstep>
  <scstep>
   <time name="diag">    0.03    0.03</time>
   <time name="diis">    0.29    0.29</time>
   <time name="orth">    0.00    0.00</time>
   <time name="total">    0.36    0.37</time>
   <energy>
    <i name="e_fr_energy">    -43.34471497 </i>
    <i name="e_wo_entrp">    -43.34231160 </i>
    <i name="e_0_energy">    -43.34391385 </i>
   </energy>
  </scstep>
  <scstep>
   <time name="diag">    0.03    0.03</time>
   <time name="diis">    0.25    0.25</time>
   <time name="orth">    0.00    0.00</time>
   <time name="total">    0.34    0.34</time>
   <energy>
    <i name="e_fr_energy">    -43.34471646 </i>
    <i name="e_wo_entrp">    -43.34231300 </i>
    <i name="e_0_energy">    -43.34391531 </i>
   </energy>
  </scstep>
  <scstep>
   <time name="diag">    0.03    0.03</time>
   <time name="diis">    0.31    0.31</time>
   <time name="orth">    0.00    0.00</time>
   <time name="total">    0.39    0.39</time>
   <energy>
    <i name="e_fr_energy">    -43.34471707 </i>
    <i name="e_wo_entrp">    -43.34231347 </i>
    <i name="e_0_energy">    -43.34391587 </i>
   </energy>
  </scstep>
  <scstep>
   <time name="diag">    0.03    0.03</time>
   <time name="diis">    0.40    0.40</time>
   <time name="orth">    0.00    0.00</time>
   <time name="total">    0.48    0.48</time>
   <energy>
    <i name="e_fr_energy">    -43.34471725 </i>
    <i name="e_wo_entrp">    -43.34231232 </i>
    <i name="e_0_energy">    -43.34391561 </i>
   </energy>
  </scstep>
  <scstep>
   <time name="diag">    0.03    0.03</time>
   <time name="diis">    0.34    0.34</time>
   <time name="orth">    0.00    0.00</time>
   <time name="total">    0.41    0.42</time>
   <energy>
    <i name="e_fr_energy">    -43.34471755 </i>
    <i name="e_wo_entrp">    -43.34231237 </i>
    <i name="e_0_energy">    -43.34391582 </i>
   </energy>
  </scstep>
  <scstep>
   <time name="diag">    0.03    0.03</time>
   <time name="diis">    0.37    0.37</time>
   <time name="orth">    0.00    0.00</time>
   <time name="total">    0.44    0.45</time>
   <energy>
    <i name="e_fr_energy">    -43.34471765 </i>
    <i name="e_wo_entrp">    -43.34231306 </i>
    <i name="e_0_energy">    -43.34391612 </i>
   </energy>
  </scstep>
  <scstep>
   <time name="diag">    0.03    0.03</time>
   <time name="diis">    0.32    0.32</time>
   <time name="orth">    0.00    0.00</time>
   <time name="total">    0.39    0.39</time>
   <energy>
    <i name="e_fr_energy">    -43.34471777 </i>
    <i name="e_wo_entrp">    -43.34231330 </i>
    <i name="e_0_energy">    -43.34391628 </i>
   </energy>
  </scstep>
  <scstep>
   <time name="diag">    0.03    0.03</time>
   <time name="diis">    0.24    0.24</time>
   <time name="orth">    0.00    0.00</time>
   <time name="total">    0.31    0.32</time>
   <energy>
    <i name="e_fr_energy">    -43.34471783 </i>
    <i name="e_wo_entrp">    -43.34231340 </i>
    <i name="e_0_energy">    -43.34391635 </i>
   </energy>
  </scstep>
  <scstep>
   <time name="diag">    0.05    0.05</time>
   <time name="diis">    0.23    0.23</time>
   <time name="orth">    0.00    0.00</time>
   <time name="total">    0.32    0.32</time>
   <energy>
    <i name="e_fr_energy">    -43.34471784 </i>
    <i name="e_wo_entrp">    -43.34231338 </i>
    <i name="e_0_energy">    -43.34391636 </i>
   </energy>
  </scstep>
  <scstep>
   <time name="diag">    0.03    0.03</time>
   <time name="diis">    0.23    0.24</time>
   <time name="orth">    0.00    0.00</time>
   <time name="total">    0.31    0.32</time>
   <energy>
    <i name="e_fr_energy">    -43.34471783 </i>
    <i name="e_wo_entrp">    -43.34231326 </i>
    <i name="e_0_energy">    -43.34391631 </i>
   </energy>
  </scstep>
  <scstep>
   <time name="diag">    0.03    0.03</time>
   <time name="diis">    0.20    0.20</time>
   <time name="orth">    0.00    0.00</time>
   <time name="total">    0.28    0.28</time>
   <energy>
    <i name="e_fr_energy">    -43.34471785 </i>
    <i name="e_wo_entrp">    -43.34231328 </i>
    <i name="e_0_energy">    -43.34391632 </i>
   </energy>
  </scstep>
  <scstep>
   <time name="diag">    0.03    0.03</time>
   <time name="diis">    0.27    0.27</time>
   <time name="orth">    0.00    0.00</time>
   <time name="total">    0.34    0.35</time>
   <energy>
    <i name="e_fr_energy">    -43.34471784 </i>
    <i name="e_wo_entrp">    -43.34231319 </i>
    <i name="e_0_energy">    -43.34391629 </i>
   </energy>
  </scstep>
  <scstep>
   <time name="diag">    0.03    0.03</time>
   <time name="diis">    0.19    0.19</time>
   <time name="orth">    0.00    0.00</time>
   <time name="total">    0.24    0.24</time>
   <energy>
    <i name="alphaZ">    189.87610418 </i>
    <i name="ewald">  -2081.00870228 </i>
    <i name="hartreedc">   -410.14715670 </i>
    <i name="XCdc">     79.08674512 </i>
    <i name="pawpsdc">   4392.18176196 </i>
    <i name="pawaedc">  -4345.98664824 </i>
    <i name="eentropy">     -0.00240471 </i>
    <i name="bandstr">   -179.62897194 </i>
    <i name="atom">   2312.28455477 </i>
    <i name="e_fr_energy">    -43.34471784 </i>
    <i name="e_wo_entrp">    -43.34231313 </i>
    <i name="e_0_energy">    -43.34391627 </i>
   </energy>
  </scstep>
  <structure>
   <crystal>
    <varray name="basis" >
     <v>       3.78532268      -0.00000000      -0.00000000 </v>
     <v>       0.00000000       3.78532268      -0.00000000 </v>
     <v>       0.00000000       0.00000000       3.78532268 </v>
    </varray>
    <i name="volume">     54.23863127 </i>
    <varray name="rec_basis" >
     <v>       0.26417827      -0.00000000      -0.00000000 </v>
     <v>       0.00000000       0.26417827      -0.00000000 </v>
     <v>       0.00000000       0.00000000       0.26417827 </v>
    </varray>
   </crystal>
   <varray name="positions" >
    <v>       0.00000000       0.00000000       0.00000000 </v>
    <v>       0.50000000       0.50000000       0.50000000 </v>
    <v>       0.50000000       0.50000000       0.00000000 </v>
    <v>       0.50000000       0.00000000       0.50000000 </v>
    <v>       0.00000000       0.50000000       0.50000000 </v>
   </varray>
  </structure>
  <varray name="forces" >
   <v>       0.00000000       0.00000000       0.00000000 </v>
   <v>      -0.00000000       0.00000000       0.00000000 </v>
   <v>       0.00000000       0.00000000       0.00000000 </v>
   <v>       0.00000000      -0.00000000       0.00000000 </v>
   <v>      -0.00000000       0.00000000       0.00000000 </v>
  </varray>
  <varray name="stress" >
   <v>      -1.39435495       0.00000000      -0.00000000 </v>
   <v>      -0.00000000      -1.39435495      -0.00000000 </v>
   <v>       0.00000000       0.00000000      -1.39435495 </v>
  </varray>
  <energy>
   <i name="e_fr_energy">    -43.34471784 </i>
   <i name="e_wo_entrp">    -43.34391627 </i>
   <i name="e_0_energy">     -0.00240471 </i>
  </energy>
  <time name="totalsc">   10.47   10.58</time>
 </calculation>
 <calculation>
  <scstep>
   <time name="dav">    0.49    0.49</time>
   <time name="total">    0.53    0.53</time>
   <energy>
    <i name="alphaZ">    189.98660468 </i>
    <i name="ewald">  -2081.41231266 </i>
    <i name="hartreedc">   -410.22702475 </i>
    <i name="XCdc">     79.11053719 </i>
    <i name="pawpsdc">   4392.17897539 </i>
    <i name="pawaedc">  -4345.98413800 </i>
    <i name="eentropy">     -0.00241864 </i>
    <i name="bandstr">   -179.27957674 </i>
    <i name="atom">   2312.28455477 </i>
    <i name="e_fr_energy">    -43.34479876 </i>
    <i name="e_wo_entrp">    -43.34238012 </i>
    <i name="e_0_energy">    -43.34399254 </i>
   </energy>
  </scstep>
  <scstep>
   <time name="diag">    0.03    0.03</time>
   <time name="diis">    0.35    0.36</time>
   <time name="orth">    0.00    0.00</time>
   <time name="total">    0.43    0.43</time>
   <energy>
    <i name="e_fr_energy">    -43.34474881 </i>
    <i name="e_wo_entrp">    -43.34235916 </i>
    <i name="e_0_energy">    -43.34395226 </i>
   </energy>
  </scstep>
  <scstep>
   <time name="diag">    0.03    0.03</time>
   <time name="diis">    0.32    0.34</time>
   <time name="orth">    0.00    0.00</time>
   <time name="total">    0.39    0.42</time>
   <energy>
    <i name="e_fr_energy">    -43.34473458 </i>
    <i name="e_wo_entrp">    -43.34232647 </i>
    <i name="e_0_energy">    -43.34393188 </i>
   </energy>
  </scstep>
  <scstep>
   <time name="diag">    0.03    0.03</time>
   <time name="diis">    0.37    0.37</time>
   <time name="orth">    0.00    0.00</time>
   <time name="total">    0.44    0.45</time>
   <energy>
    <i name="e_fr_energy">    -43.34473266 </i>
    <i name="e_wo_entrp">    -43.34232793 </i>
    <i name="e_0_energy">    -43.34393108 </i>
   </energy>
  </scstep>
  <scstep>
   <time name="diag">    0.03    0.03</time>
   <time name="diis">    0.35    0.36</time>
   <time name="orth">    0.00    0.00</time>
   <time name="total">    0.43    0.43</time>
   <energy>
    <i name="e_fr_energy">    -43.34473269 </i>
    <i name="e_wo_entrp">    -43.34232714 </i>
    <i name="e_0_energy">    -43.34393084 </i>
   </energy>
  </scstep>
  <scstep>
   <time name="diag">    0.03    0.03</time>
   <time name="diis">    0.35    0.35</time>
   <time name="orth">    0.00    0.00</time>
   <time name="total">    0.42    0.43</time>
   <energy>
    <i name="e_fr_energy">    -43.34473281 </i>
    <i name="e_wo_entrp">    -43.34232691 </i>
    <i name="e_0_energy">    -43.34393084 </i>
   </energy>
  </scstep>
  <scstep>
   <time name="diag">    0.03    0.03</time>
   <time name="diis">    0.26    0.26</time>
   <time name="orth">    0.00    0.00</time>
   <time name="total">    0.33    0.33</time>
   <energy>
    <i name="e_fr_energy">    -43.34473284 </i>
    <i name="e_wo_entrp">    -43.34232678 </i>
    <i name="e_0_energy">    -43.34393082 </i>
   </energy>
  </scstep>
  <scstep>
   <time name="diag">    0.03    0.03</time>
   <time name="diis">    0.25    0.25</time>
   <time name="orth">    0.00    0.00</time>
   <time name="total">    0.31    0.31</time>
   <energy>
    <i name="alphaZ">    189.98660468 </i>
    <i name="ewald">  -2081.41231266 </i>
    <i name="hartreedc">   -409.99806360 </i>
    <i name="XCdc">     79.09366679 </i>
    <i name="pawpsdc">   4398.14622339 </i>
    <i name="pawaedc">  -4351.95568047 </i>
    <i name="eentropy">     -0.00240601 </i>
    <i name="bandstr">   -179.48731973 </i>
    <i name="atom">   2312.28455477 </i>
    <i name="e_fr_energy">    -43.34473284 </i>
    <i name="e_wo_entrp">    -43.34232683 </i>
    <i name="e_0_energy">    -43.34393083 </i>
   </energy>
  </scstep>
  <structure>
   <crystal>
    <varray name="basis" >
     <v>       3.78458866      -0.00000000      -0.00000000 </v>
     <v>       0.00000000       3.78458866      -0.00000000 </v>
     <v>       0.00000000       0.00000000       3.78458866 </v>
    </varray>
    <i name="volume">     54.20708486 </i>
    <varray name="rec_basis" >
     <v>       0.26422951      -0.00000000      -0.00000000 </v>
     <v>       0.00000000       0.26422951      -0.00000000 </v>
     <v>       0.00000000       0.00000000       0.26422951 </v>
    </varray>
   </crystal>
   <varray name="positions" >
    <v>       0.00000000       0.00000000       0.00000000 </v>
    <v>       0.50000000       0.50000000       0.50000000 </v>
    <v>       0.50000000       0.50000000       0.00000000 </v>
    <v>       0.50000000       0.00000000       0.50000000 </v>
    <v>       0.00000000       0.50000000       0.50000000 </v>
   </varray>
  </structure>
  <varray name="forces" >
   <v>       0.00000000       0.00000000       0.00000000 </v>
   <v>      -0.00000000       0.00000000       0.00000000 </v>
   <v>       0.00000000       0.00000000       0.00000000 </v>
   <v>       0.00000000      -0.00000000       0.00000000 </v>
   <v>      -0.00000000       0.00000000       0.00000000 </v>
  </varray>
  <varray name="stress" >
   <v>      -0.14308426       0.00000000      -0.00000000 </v>
   <v>      -0.00000000      -0.14308426      -0.00000000 </v>
   <v>       0.00000000       0.00000000      -0.14308426 </v>
  </varray>
  <energy>
   <i name="e_fr_energy">    -43.34473284 </i>
   <i name="e_wo_entrp">    -43.34393083 </i>
   <i name="e_0_energy">     -0.00240601 </i>
  </energy>
  <time name="totalsc">    4.16    4.22</time>
  <eigenvalues>
   <array>
    <dimension dim="1">band</dimension>
    <dimension dim="2">kpoint</dimension>
    <dimension dim="3">spin</dimension>
    <field>eigene</field>
    <field>occ</field>
    <set>
     <set comment="spin 1">
      <set comment="kpoint 1">
       <r>  -28.5753    1.0000 </r>
       <r>  -14.0997    1.0000 </r>
       <r>  -12.8101    1.0000 </r>
       <r>  -12.8101    1.0000 </r>
       <r>  -10.7164    1.0000 </r>
       <r>  -10.7164    1.0000 </r>
       <r>  -10.7164    1.0000 </r>
       <r>    0.2990    1.0000 </r>
       <r>    0.2990    1.0000 </r>
       <r>    0.2990    1.0000 </r>
       <r>    2.2374    1.0000 </r>
       <r>    2.2374    1.0000 </r>
       <r>    2.2374    1.0000 </r>
       <r>    3.1980    1.0000 </r>
       <r>    3.1980    1.0000 </r>
       <r>    3.1980    1.0000 </r>
       <r>    4.4954    1.0000 </r>
       <r>    4.4954    1.0000 </r>
       <r>    4.4954    1.0000 </r>
       <r>    6.9407   -0.0000 </r>
      </set>
      <set comment="kpoint 2">
       <r>  -28.5549    1.0000 </r>
       <r>  -14.1870    1.0000 </r>
       <r>  -12.8286    1.0000 </r>
       <r>  -12.7812    1.0000 </r>
       <r>  -10.6769    1.0000 </r>
       <r>  -10.6769    1.0000 </r>
       <r>  -10.2913    1.0000 </r>
       <r>   -0.5359    1.0000 </r>
       <r>    0.2400    1.0000 </r>
       <r>    0.2400    1.0000 </r>
       <r>    1.4225    1.0000 </r>
       <r>    1.4225    1.0000 </r>
       <r>    1.7027    1.0000 </r>
       <r>    1.7646    1.0000 </r>
       <r>    2.8727    1.0000 </r>
       <r>    2.8727    1.0000 </r>
       <r>    4.5650    1.0000 </r>
       <r>    5.7364    0.4552 </r>
       <r>    5.7364    0.4552 </r>
       <r>    6.9618   -0.0000 </r>
      </set>
      <set comment="kpoint 3">
       <r>  -28.5343    1.0000 </r>
       <r>  -14.3644    1.0000 </r>
       <r>  -12.7520    1.0000 </r>
       <r>  -12.6378    1.0000 </r>
       <r>  -10.6366    1.0000 </r>
       <r>  -10.6366    1.0000 </r>
       <r>   -9.9593    1.0000 </r>
       <r>   -1.3672    1.0000 </r>
       <r>    0.1929    1.0000 </r>
       <r>    0.1929    1.0000 </r>
       <r>    0.8385    1.0000 </r>
       <r>    0.8385    1.0000 </r>
       <r>    0.8745    1.0000 </r>
       <r>    1.2595    1.0000 </r>
       <r>    2.7064    1.0000 </r>
       <r>    2.7064    1.0000 </r>
       <r>    4.6370    1.0000 </r>
       <r>    6.6190   -0.0000 </r>
       <r>    6.6190   -0.0000 </r>
       <r>    6.9730   -0.0000 </r>
      </set>
      <set comment="kpoint 4">
       <r>  -28.5365    1.0000 </r>
       <r>  -14.0357    1.0000 </r>
       <r>  -13.0206    1.0000 </r>
       <r>  -12.7354    1.0000 </r>
       <r>  -10.6342    1.0000 </r>
       <r>  -10.4476    1.0000 </r>
       <r>  -10.2761    1.0000 </r>
       <r>   -0.8458    1.0000 </r>
       <r>   -0.3256    1.0000 </r>
       <r>    0.0666    1.0000 </r>
       <r>    0.2110    1.0000 </r>
       <r>    0.9704    1.0000 </r>
       <r>    1.6538    1.0000 </r>
       <r>    2.0838    1.0000 </r>
       <r>    2.2251    1.0000 </r>
       <r>    2.7339    1.0000 </r>
       <r>    5.6635    1.0316 </r>
       <r>    5.8175   -0.0196 </r>
       <r>    6.0421   -0.0000 </r>
       <r>    7.6715    0.0000 </r>
      </set>
      <set comment="kpoint 5">
       <r>  -28.5179    1.0000 </r>
       <r>  -14.0048    1.0000 </r>
       <r>  -12.9343    1.0000 </r>
       <r>  -12.7713    1.0000 </r>
       <r>  -10.5906    1.0000 </r>
       <r>  -10.4078    1.0000 </r>
       <r>  -10.1214    1.0000 </r>
       <r>   -1.4188    1.0000 </r>
       <r>   -0.9209    1.0000 </r>
       <r>   -0.4353    1.0000 </r>
       <r>    0.2040    1.0000 </r>
       <r>    0.5164    1.0000 </r>
       <r>    1.5062    1.0000 </r>
       <r>    1.9153    1.0000 </r>
       <r>    1.9527    1.0000 </r>
       <r>    2.8121    1.0000 </r>
       <r>    5.7530    0.1994 </r>
       <r>    6.6015   -0.0000 </r>
       <r>    6.6587   -0.0000 </r>
       <r>    7.8090    0.0000 </r>
      </set>
      <set comment="kpoint 6">
       <r>  -28.5015    1.0000 </r>
       <r>  -13.2778    1.0000 </r>
       <r>  -13.1868    1.0000 </r>
       <r>  -13.1868    1.0000 </r>
       <r>  -10.5436    1.0000 </r>
       <r>  -10.2144    1.0000 </r>
       <r>  -10.2144    1.0000 </r>
       <r>   -1.6647    1.0000 </r>
       <r>   -1.6319    1.0000 </r>
       <r>   -1.2021    1.0000 </r>
       <r>    0.2155    1.0000 </r>
       <r>    0.2155    1.0000 </r>
       <r>    1.4317    1.0000 </r>
       <r>    1.9072    1.0000 </r>
       <r>    1.9072    1.0000 </r>
       <r>    3.4419    1.0000 </r>
       <r>    6.5912   -0.0000 </r>
       <r>    6.5912   -0.0000 </r>
       <r>    6.9423   -0.0000 </r>
       <r>    8.0703    0.0000 </r>
      </set>
      <set comment="kpoint 7">
       <r>  -28.5194    1.0000 </r>
       <r>  -13.8195    1.0000 </r>
       <r>  -12.8677    1.0000 </r>
       <r>  -12.8677    1.0000 </r>
       <r>  -10.6467    1.0000 </r>
       <r>  -10.6467    1.0000 </r>
       <r>  -10.1844    1.0000 </r>
       <r>   -1.0816    1.0000 </r>
       <r>   -0.3126    1.0000 </r>
       <r>   -0.3126    1.0000 </r>
       <r>    0.1990    1.0000 </r>
       <r>    0.1990    1.0000 </r>
       <r>    0.3589    1.0000 </r>
       <r>    2.5204    1.0000 </r>
       <r>    2.5204    1.0000 </r>
       <r>    2.8539    1.0000 </r>
       <r>    6.1005   -0.0000 </r>
       <r>    6.1825   -0.0000 </r>
       <r>    6.1825   -0.0000 </r>
       <r>    9.3396    0.0000 </r>
      </set>
      <set comment="kpoint 8">
       <r>  -28.5021    1.0000 </r>
       <r>  -13.6570    1.0000 </r>
       <r>  -12.9242    1.0000 </r>
       <r>  -12.6813    1.0000 </r>
       <r>  -10.8804    1.0000 </r>
       <r>  -10.3889    1.0000 </r>
       <r>  -10.3628    1.0000 </r>
       <r>   -1.4383    1.0000 </r>
       <r>   -0.8611    1.0000 </r>
       <r>   -0.4773    1.0000 </r>
       <r>   -0.2697    1.0000 </r>
       <r>   -0.2317    1.0000 </r>
       <r>    0.4477    1.0000 </r>
       <r>    2.4759    1.0000 </r>
       <r>    2.6568    1.0000 </r>
       <r>    2.9364    1.0000 </r>
       <r>    6.2596   -0.0000 </r>
       <r>    6.7441   -0.0000 </r>
       <r>    6.7750   -0.0000 </r>
       <r>    9.3064    0.0000 </r>
      </set>
      <set comment="kpoint 9">
       <r>  -28.4863    1.0000 </r>
       <r>  -12.9560    1.0000 </r>
       <r>  -12.9460    1.0000 </r>
       <r>  -12.9460    1.0000 </r>
       <r>  -10.8416    1.0000 </r>
       <r>  -10.6134    1.0000 </r>
       <r>  -10.6134    1.0000 </r>
       <r>   -1.6277    1.0000 </r>
       <r>   -1.1922    1.0000 </r>
       <r>   -1.0747    1.0000 </r>
       <r>   -0.2310    1.0000 </r>
       <r>   -0.2310    1.0000 </r>
       <r>   -0.1385    1.0000 </r>
       <r>    2.8061    1.0000 </r>
       <r>    2.8061    1.0000 </r>
       <r>    3.4963    1.0000 </r>
       <r>    6.8605   -0.0000 </r>
       <r>    6.8605   -0.0000 </r>
       <r>    7.0750   -0.0000 </r>
       <r>    9.7977    0.0000 </r>
      </set>
      <set comment="kpoint 10">
       <r>  -28.4710    1.0000 </r>
       <r>  -12.5973    1.0000 </r>
       <r>  -12.5973    1.0000 </r>
       <r>  -12.5973    1.0000 </r>
       <r>  -11.1134    1.0000 </r>
       <r>  -11.1134    1.0000 </r>
       <r>  -11.1134    1.0000 </r>
       <r>   -1.8136    1.0000 </r>
       <r>   -1.1825    1.0000 </r>
       <r>   -1.1825    1.0000 </r>
       <r>   -0.4988    1.0000 </r>
       <r>   -0.4988    1.0000 </r>
       <r>   -0.4988    1.0000 </r>
       <r>    3.5519    1.0000 </r>
       <r>    3.5519    1.0000 </r>
       <r>    3.5519    1.0000 </r>
       <r>    7.2208    0.0000 </r>
       <r>    7.2208    0.0000 </r>
       <r>    7.2208    0.0000 </r>
       <r>   10.9044    0.0000 </r>
      </set>
     </set>
    </set>
   </array>
  </eigenvalues>
  <separator name="orbital magnetization" >
   <v name="MAGDIPOLOUT">      0.00000000      0.00000000      0.00000000</v>
  </separator>
  <dos>
   <i name="efermi">      5.73371621 </i>
   <total>
    <array>
     <dimension dim="1">gridpoints</dimension>
     <dimension dim="2">spin</dimension>
     <field>energy</field>
     <field>total</field>
     <field>integrated</field>
     <set>
      <set comment="spin 1">
       <r>   -30.5493     0.0000     0.0000 </r>
       <r>   -30.4045     0.0000     0.0000 </r>
       <r>   -30.2597     0.0000     0.0000 </r>
       <r>   -30.1150     0.0000     0.0000 </r>
       <r>   -29.9702     0.0000     0.0000 </r>
       <r>   -29.8255     0.0000     0.0000 </r>
       <r>   -29.6807     0.0000     0.0000 </r>
       <r>   -29.5359     0.0000     0.0000 </r>
       <r>   -29.3912     0.0000     0.0000 </r>
       <r>   -29.2464     0.0000     0.0000 </r>
       <r>   -29.1017    -0.0000    -0.0000 </r>
       <r>   -28.9569    -0.0000    -0.0000 </r>
       <r>   -28.8121    -0.0000    -0.0000 </r>
       <r>   -28.6674    -0.0096    -0.0014 </r>
       <r>   -28.5226     6.2553     0.9041 </r>
       <r>   -28.3779     7.5841     2.0020 </r>
       <r>   -28.2331    -0.0137     2.0000 </r>
       <r>   -28.0884    -0.0000     2.0000 </r>
       <r>   -27.9436     0.0000     2.0000 </r>
       <r>   -27.7988     0.0000     2.0000 </r>
       <r>   -27.6541     0.0000     2.0000 </r>
       <r>   -27.5093     0.0000     2.0000 </r>
       <r>   -27.3646     0.0000     2.0000 </r>
       <r>   -27.2198     0.0000     2.0000 </r>
       <r>   -27.0750     0.0000     2.0000 </r>
       <r>   -26.9303     0.0000     2.0000 </r>
       <r>   -26.7855     0.0000     2.0000 </r>
       <r>   -26.6408     0.0000     2.0000 </r>
       <r>   -26.4960     0.0000     2.0000 </r>
       <r>   -26.3512     0.0000     2.0000 </r>
       <r>   -26.2065     0.0000     2.0000 </r>
       <r>   -26.0617     0.0000     2.0000 </r>
       <r>   -25.9170     0.0000     2.0000 </r>
       <r>   -25.7722     0.0000     2.0000 </r>
       <r>   -25.6275     0.0000     2.0000 </r>
       <r>   -25.4827     0.0000     2.0000 </r>
       <r>   -25.3379     0.0000     2.0000 </r>
       <r>   -25.1932     0.0000     2.0000 </r>
       <r>   -25.0484     0.0000     2.0000 </r>
       <r>   -24.9037     0.0000     2.0000 </r>
       <r>   -24.7589     0.0000     2.0000 </r>
       <r>   -24.6141     0.0000     2.0000 </r>
       <r>   -24.4694     0.0000     2.0000 </r>
       <r>   -24.3246     0.0000     2.0000 </r>
       <r>   -24.1799     0.0000     2.0000 </r>
       <r>   -24.0351     0.0000     2.0000 </r>
       <r>   -23.8903     0.0000     2.0000 </r>
       <r>   -23.7456     0.0000     2.0000 </r>
       <r>   -23.6008     0.0000     2.0000 </r>
       <r>   -23.4561     0.0000     2.0000 </r>
       <r>   -23.3113     0.0000     2.0000 </r>
       <r>   -23.1666     0.0000     2.0000 </r>
       <r>   -23.0218     0.0000     2.0000 </r>
       <r>   -22.8770     0.0000     2.0000 </r>
       <r>   -22.7323     0.0000     2.0000 </r>
       <r>   -22.5875     0.0000     2.0000 </r>
       <r>   -22.4428     0.0000     2.0000 </r>
       <r>   -22.2980     0.0000     2.0000 </r>
       <r>   -22.1532     0.0000     2.0000 </r>
       <r>   -22.0085     0.0000     2.0000 </r>
       <r>   -21.8637     0.0000     2.0000 </r>
       <r>   -21.7190     0.0000     2.0000 </r>
       <r>   -21.5742     0.0000     2.0000 </r>
       <r>   -21.4294     0.0000     2.0000 </r>
       <r>   -21.2847     0.0000     2.0000 </r>
       <r>   -21.1399     0.0000     2.0000 </r>
       <r>   -20.9952     0.0000     2.0000 </r>
       <r>   -20.8504     0.0000     2.0000 </r>
       <r>   -20.7056     0.0000     2.0000 </r>
       <r>   -20.5609     0.0000     2.0000 </r>
       <r>   -20.4161     0.0000     2.0000 </r>
       <r>   -20.2714     0.0000     2.0000 </r>
       <r>   -20.1266     0.0000     2.0000 </r>
       <r>   -19.9819     0.0000     2.0000 </r>
       <r>   -19.8371     0.0000     2.0000 </r>
       <r>   -19.6923     0.0000     2.0000 </r>
       <r>   -19.5476     0.0000     2.0000 </r>
       <r>   -19.4028     0.0000     2.0000 </r>
       <r>   -19.2581     0.0000     2.0000 </r>
       <r>   -19.1133     0.0000     2.0000 </r>
       <r>   -18.9685     0.0000     2.0000 </r>
       <r>   -18.8238     0.0000     2.0000 </r>
       <r>   -18.6790     0.0000     2.0000 </r>
       <r>   -18.5343     0.0000     2.0000 </r>
       <r>   -18.3895     0.0000     2.0000 </r>
       <r>   -18.2447     0.0000     2.0000 </r>
       <r>   -18.1000     0.0000     2.0000 </r>
       <r>   -17.9552     0.0000     2.0000 </r>
       <r>   -17.8105     0.0000     2.0000 </r>
       <r>   -17.6657     0.0000     2.0000 </r>
       <r>   -17.5210     0.0000     2.0000 </r>
       <r>   -17.3762     0.0000     2.0000 </r>
       <r>   -17.2314     0.0000     2.0000 </r>
       <r>   -17.0867     0.0000     2.0000 </r>
       <r>   -16.9419     0.0000     2.0000 </r>
       <r>   -16.7972     0.0000     2.0000 </r>
       <r>   -16.6524     0.0000     2.0000 </r>
       <r>   -16.5076     0.0000     2.0000 </r>
       <r>   -16.3629     0.0000     2.0000 </r>
       <r>   -16.2181     0.0000     2.0000 </r>
       <r>   -16.0734     0.0000     2.0000 </r>
       <r>   -15.9286     0.0000     2.0000 </r>
       <r>   -15.7838     0.0000     2.0000 </r>
       <r>   -15.6391     0.0000     2.0000 </r>
       <r>   -15.4943     0.0000     2.0000 </r>
       <r>   -15.3496     0.0000     2.0000 </r>
       <r>   -15.2048     0.0000     2.0000 </r>
       <r>   -15.0601     0.0000     2.0000 </r>
       <r>   -14.9153     0.0000     2.0000 </r>
       <r>   -14.7705    -0.0000     2.0000 </r>
       <r>   -14.6258    -0.0000     2.0000 </r>
       <r>   -14.4810    -0.0015     1.9998 </r>
       <r>   -14.3363     0.5862     2.0846 </r>
       <r>   -14.1915     0.6085     2.1727 </r>
       <r>   -14.0467     1.7976     2.4329 </r>
       <r>   -13.9020     4.3317     3.0600 </r>
       <r>   -13.7572     1.7851     3.3184 </r>
       <r>   -13.6125     2.5754     3.6912 </r>
       <r>   -13.4677    -0.0256     3.6875 </r>
       <r>   -13.3229    -0.0083     3.6863 </r>
       <r>   -13.1782     1.4955     3.9028 </r>
       <r>   -13.0334     1.1016     4.0622 </r>
       <r>   -12.8887    11.6296     5.7457 </r>
       <r>   -12.7439     9.4302     7.1108 </r>
       <r>   -12.5992     5.8429     7.9566 </r>
       <r>   -12.4544     0.2997     8.0000 </r>
       <r>   -12.3096    -0.0001     8.0000 </r>
       <r>   -12.1649     0.0000     8.0000 </r>
       <r>   -12.0201     0.0000     8.0000 </r>
       <r>   -11.8754     0.0000     8.0000 </r>
       <r>   -11.7306     0.0000     8.0000 </r>
       <r>   -11.5858    -0.0000     8.0000 </r>
       <r>   -11.4411    -0.0000     8.0000 </r>
       <r>   -11.2963    -0.0000     8.0000 </r>
       <r>   -11.1516     0.0130     8.0019 </r>
       <r>   -11.0068     0.6353     8.0938 </r>
       <r>   -10.8620     2.2792     8.4238 </r>
       <r>   -10.7173     1.7342     8.6748 </r>
       <r>   -10.5725    15.3655    10.8991 </r>
       <r>   -10.4278     3.4503    11.3986 </r>
       <r>   -10.2830     9.6665    12.7979 </r>
       <r>   -10.1383     5.7280    13.6271 </r>
       <r>    -9.9935     1.9607    13.9109 </r>
       <r>    -9.8487     0.6180    14.0004 </r>
       <r>    -9.7040    -0.0025    14.0000 </r>
       <r>    -9.5592     0.0000    14.0000 </r>
       <r>    -9.4145     0.0000    14.0000 </r>
       <r>    -9.2697     0.0000    14.0000 </r>
       <r>    -9.1249     0.0000    14.0000 </r>
       <r>    -8.9802     0.0000    14.0000 </r>
       <r>    -8.8354     0.0000    14.0000 </r>
       <r>    -8.6907     0.0000    14.0000 </r>
       <r>    -8.5459     0.0000    14.0000 </r>
       <r>    -8.4011     0.0000    14.0000 </r>
       <r>    -8.2564     0.0000    14.0000 </r>
       <r>    -8.1116     0.0000    14.0000 </r>
       <r>    -7.9669     0.0000    14.0000 </r>
       <r>    -7.8221     0.0000    14.0000 </r>
       <r>    -7.6774     0.0000    14.0000 </r>
       <r>    -7.5326     0.0000    14.0000 </r>
       <r>    -7.3878     0.0000    14.0000 </r>
       <r>    -7.2431     0.0000    14.0000 </r>
       <r>    -7.0983     0.0000    14.0000 </r>
       <r>    -6.9536     0.0000    14.0000 </r>
       <r>    -6.8088     0.0000    14.0000 </r>
       <r>    -6.6640     0.0000    14.0000 </r>
       <r>    -6.5193     0.0000    14.0000 </r>
       <r>    -6.3745     0.0000    14.0000 </r>
       <r>    -6.2298     0.0000    14.0000 </r>
       <r>    -6.0850     0.0000    14.0000 </r>
       <r>    -5.9402     0.0000    14.0000 </r>
       <r>    -5.7955     0.0000    14.0000 </r>
       <r>    -5.6507     0.0000    14.0000 </r>
       <r>    -5.5060     0.0000    14.0000 </r>
       <r>    -5.3612     0.0000    14.0000 </r>
       <r>    -5.2165     0.0000    14.0000 </r>
       <r>    -5.0717     0.0000    14.0000 </r>
       <r>    -4.9269     0.0000    14.0000 </r>
       <r>    -4.7822     0.0000    14.0000 </r>
       <r>    -4.6374     0.0000    14.0000 </r>
       <r>    -4.4927     0.0000    14.0000 </r>
       <r>    -4.3479     0.0000    14.0000 </r>
       <r>    -4.2031     0.0000    14.0000 </r>
       <r>    -4.0584     0.0000    14.0000 </r>
       <r>    -3.9136     0.0000    14.0000 </r>
[...]
        <r>  0.7569  0.0000  0.0007  0.0000  0.0000  0.0000  0.0000  0.0000  0.0000 </r>
        <r>  0.0000  0.0002  0.0000  0.0000  0.0000  0.0000  0.0000  0.0000  0.0000 </r>
        <r>  0.0000  0.0000  0.0000  0.0002  0.0000  0.0000  0.0000  0.0000  0.0000 </r>
       </set>
       <set comment="band 3">
        <r>  0.0000  0.0056  0.0000  0.1362  0.0000  0.0001  0.0000  0.0021  0.0000 </r>
        <r>  0.0000  0.0894  0.0000  0.0037  0.0000  0.0004  0.0000  0.0000  0.0000 </r>
        <r>  0.0000  0.0020  0.0000  0.0001  0.0000  0.0000  0.0000  0.0000  0.0000 </r>
        <r>  0.6067  0.0000  0.0004  0.0000  0.0000  0.0000  0.0000  0.0000  0.0000 </r>
        <r>  0.0250  0.0000  0.0000  0.0000  0.0000  0.0000  0.0000  0.0000  0.0000 </r>
       </set>
       <set comment="band 4">
        <r>  0.0000  0.1362  0.0000  0.0056  0.0000  0.0021  0.0000  0.0001  0.0000 </r>
        <r>  0.0000  0.0037  0.0000  0.0894  0.0000  0.0000  0.0000  0.0004  0.0000 </r>
        <r>  0.0000  0.0001  0.0000  0.0020  0.0000  0.0000  0.0000  0.0000  0.0000 </r>
        <r>  0.0250  0.0000  0.0000  0.0000  0.0000  0.0000  0.0000  0.0000  0.0000 </r>
        <r>  0.6067  0.0000  0.0004  0.0000  0.0000  0.0000  0.0000  0.0000  0.0000 </r>
       </set>
       <set comment="band 5">
        <r>  0.0002  0.0000  0.9173  0.0000  0.0000  0.0000  0.0002  0.0000  0.0000 </r>
        <r>  0.0000  0.0000  0.0000  0.0000  0.0037  0.0000  0.0000  0.0000  0.0000 </r>
        <r>  0.0000  0.0000  0.0000  0.0000  0.0000  0.0000  0.0000  0.0000  0.0000 </r>
        <r>  0.0000  0.0000  0.0000  0.0044  0.0000  0.0000  0.0000  0.0000  0.0000 </r>
        <r>  0.0000  0.0044  0.0000  0.0000  0.0000  0.0000  0.0000  0.0000  0.0000 </r>
       </set>
       <set comment="band 6">
        <r>  0.0000  0.1377  0.0000  0.6250  0.0000  0.0002  0.0000  0.0007  0.0000 </r>
        <r>  0.0000  0.0116  0.0000  0.0026  0.0000  0.0025  0.0000  0.0005  0.0000 </r>
        <r>  0.0000  0.0041  0.0000  0.0009  0.0000  0.0000  0.0000  0.0000  0.0000 </r>
        <r>  0.1205  0.0000  0.0031  0.0000  0.0000  0.0000  0.0000  0.0000  0.0000 </r>
        <r>  0.0266  0.0000  0.0007  0.0000  0.0000  0.0000  0.0000  0.0000  0.0000 </r>
       </set>
       <set comment="band 7">
        <r>  0.0000  0.6250  0.0000  0.1377  0.0000  0.0007  0.0000  0.0002  0.0000 </r>
        <r>  0.0000  0.0026  0.0000  0.0116  0.0000  0.0005  0.0000  0.0025  0.0000 </r>
        <r>  0.0000  0.0009  0.0000  0.0041  0.0000  0.0000  0.0000  0.0000  0.0000 </r>
        <r>  0.0266  0.0000  0.0007  0.0000  0.0000  0.0000  0.0000  0.0000  0.0000 </r>
        <r>  0.1205  0.0000  0.0031  0.0000  0.0000  0.0000  0.0000  0.0000  0.0000 </r>
       </set>
       <set comment="band 8">
        <r>  0.0000  0.0000  0.0000  0.0000  0.0028  0.0000  0.0000  0.0000  0.0000 </r>
        <r>  0.2924  0.0000  0.0031  0.0000  0.0000  0.0000  0.1717  0.0000  0.0000 </r>
        <r>  0.0041  0.0000  0.0070  0.0000  0.0000  0.0000  0.0000  0.0000  0.0000 </r>
        <r>  0.0000  0.2583  0.0000  0.0000  0.0000  0.0000  0.0000  0.0000  0.0000 </r>
        <r>  0.0000  0.0000  0.0000  0.2583  0.0000  0.0000  0.0000  0.0000  0.0000 </r>
       </set>
       <set comment="band 9">
        <r>  0.0000  0.0000  0.0000  0.0000  0.0000  0.0000  0.0000  0.0000  0.0000 </r>
        <r>  0.0000  0.0000  0.0000  0.0000  0.0000  0.0000  0.0000  0.0000  0.5896 </r>
        <r>  0.0000  0.0000  0.0000  0.0000  0.0000  0.0000  0.0000  0.0000  0.0000 </r>
        <r>  0.0000  0.2457  0.0000  0.0000  0.0000  0.0000  0.0000  0.0000  0.0000 </r>
        <r>  0.0000  0.0000  0.0000  0.2457  0.0000  0.0000  0.0000  0.0000  0.0000 </r>
       </set>
       <set comment="band 10">
        <r>  0.0130  0.0000  0.0481  0.0000  0.0000  0.0000  0.0093  0.0000  0.0000 </r>
        <r>  0.0000  0.0000  0.0000  0.0000  0.2263  0.0000  0.0000  0.0000  0.0000 </r>
        <r>  0.0000  0.0000  0.0000  0.0000  0.0000  0.0000  0.0000  0.0000  0.0000 </r>
        <r>  0.0000  0.0000  0.0000  0.2099  0.0000  0.0000  0.0000  0.0000  0.0000 </r>
        <r>  0.0000  0.2099  0.0000  0.0000  0.0000  0.0000  0.0000  0.0000  0.0000 </r>
       </set>
       <set comment="band 11">
        <r>  0.0000  0.0059  0.0000  0.0535  0.0000  0.0013  0.0000  0.0116  0.0000 </r>
        <r>  0.0000  0.0012  0.0000  0.0001  0.0000  0.2128  0.0000  0.0235  0.0000 </r>
        <r>  0.0000  0.1463  0.0000  0.0161  0.0000  0.0000  0.0000  0.0000  0.0000 </r>
        <r>  0.0000  0.0000  0.2529  0.0000  0.0000  0.0000  0.0000  0.0000  0.0000 </r>
        <r>  0.0000  0.0000  0.0279  0.0000  0.0000  0.0000  0.0000  0.0000  0.0000 </r>
       </set>
       <set comment="band 12">
        <r>  0.0000  0.0535  0.0000  0.0059  0.0000  0.0116  0.0000  0.0013  0.0000 </r>
        <r>  0.0000  0.0001  0.0000  0.0012  0.0000  0.0235  0.0000  0.2128  0.0000 </r>
        <r>  0.0000  0.0161  0.0000  0.1463  0.0000  0.0000  0.0000  0.0000  0.0000 </r>
        <r>  0.0000  0.0000  0.0279  0.0000  0.0000  0.0000  0.0000  0.0000  0.0000 </r>
        <r>  0.0000  0.0000  0.2529  0.0000  0.0000  0.0000  0.0000  0.0000  0.0000 </r>
       </set>
       <set comment="band 13">
        <r>  0.0000  0.0000  0.0000  0.0000  0.0003  0.0000  0.0000  0.0000  0.0000 </r>
        <r>  0.0555  0.0000  0.1280  0.0000  0.0000  0.0000  0.2812  0.0000  0.0000 </r>
        <r>  0.0056  0.0000  0.5502  0.0000  0.0000  0.0000  0.0000  0.0000  0.0000 </r>
        <r>  0.0000  0.0011  0.0000  0.0000  0.0000  0.0000  0.0000  0.0000  0.0000 </r>
        <r>  0.0000  0.0000  0.0000  0.0011  0.0000  0.0000  0.0000  0.0000  0.0000 </r>
       </set>
       <set comment="band 14">
        <r>  0.0000  0.0002  0.0000  0.0079  0.0000  0.0004  0.0000  0.0139  0.0000 </r>
        <r>  0.0000  0.0072  0.0000  0.0002  0.0000  0.0041  0.0000  0.0001  0.0000 </r>
        <r>  0.0000  0.4499  0.0000  0.0140  0.0000  0.0000  0.0000  0.0000  0.0000 </r>
        <r>  0.0060  0.0000  0.2329  0.0000  0.0000  0.0000  0.0000  0.0000  0.0000 </r>
        <r>  0.0002  0.0000  0.0072  0.0000  0.0000  0.0000  0.0000  0.0000  0.0000 </r>
       </set>
       <set comment="band 15">
        <r>  0.0000  0.0079  0.0000  0.0002  0.0000  0.0139  0.0000  0.0004  0.0000 </r>
        <r>  0.0000  0.0002  0.0000  0.0072  0.0000  0.0001  0.0000  0.0041  0.0000 </r>
        <r>  0.0000  0.0140  0.0000  0.4499  0.0000  0.0000  0.0000  0.0000  0.0000 </r>
        <r>  0.0002  0.0000  0.0072  0.0000  0.0000  0.0000  0.0000  0.0000  0.0000 </r>
        <r>  0.0060  0.0000  0.2329  0.0000  0.0000  0.0000  0.0000  0.0000  0.0000 </r>
       </set>
       <set comment="band 16">
        <r>  0.0000  0.0000  0.0000  0.0000  0.0000  0.0000  0.0000  0.0000  0.0084 </r>
        <r>  0.0000  0.0000  0.0000  0.0000  0.0000  0.0000  0.0000  0.0000  0.0000 </r>
        <r>  0.0000  0.0000  0.0000  0.0000  0.0000  0.0000  0.0000  0.0000  0.0000 </r>
        <r>  0.0000  0.0000  0.0000  0.3880  0.0000  0.0000  0.0000  0.0000  0.0000 </r>
        <r>  0.0000  0.3880  0.0000  0.0000  0.0000  0.0000  0.0000  0.0000  0.0000 </r>
       </set>
       <set comment="band 17">
        <r>  0.0000  0.0013  0.0000  0.0054  0.0000  0.0001  0.0000  0.0005  0.0000 </r>
        <r>  0.0000  0.0010  0.0000  0.0002  0.0000  0.6153  0.0000  0.1456  0.0000 </r>
        <r>  0.0000  0.0229  0.0000  0.0054  0.0000  0.0000  0.0000  0.0000  0.0000 </r>
        <r>  0.0005  0.0000  0.1108  0.0000  0.0000  0.0000  0.0000  0.0000  0.0000 </r>
        <r>  0.0001  0.0000  0.0262  0.0000  0.0000  0.0000  0.0000  0.0000  0.0000 </r>
       </set>
       <set comment="band 18">
        <r>  0.0000  0.0054  0.0000  0.0013  0.0000  0.0005  0.0000  0.0001  0.0000 </r>
        <r>  0.0000  0.0002  0.0000  0.0010  0.0000  0.1456  0.0000  0.6153  0.0000 </r>
        <r>  0.0000  0.0054  0.0000  0.0229  0.0000  0.0000  0.0000  0.0000  0.0000 </r>
        <r>  0.0001  0.0000  0.0262  0.0000  0.0000  0.0000  0.0000  0.0000  0.0000 </r>
        <r>  0.0005  0.0000  0.1108  0.0000  0.0000  0.0000  0.0000  0.0000  0.0000 </r>
       </set>
       <set comment="band 19">
        <r>  0.0023  0.0000  0.0036  0.0000  0.0000  0.0000  0.0148  0.0000  0.0000 </r>
        <r>  0.0000  0.0000  0.0000  0.0000  0.7946  0.0000  0.0000  0.0000  0.0000 </r>
        <r>  0.0000  0.0000  0.0000  0.0000  0.0000  0.0000  0.0000  0.0000  0.0000 </r>
        <r>  0.0000  0.0000  0.0000  0.0577  0.0000  0.0000  0.0000  0.0000  0.0000 </r>
        <r>  0.0000  0.0577  0.0000  0.0000  0.0000  0.0000  0.0000  0.0000  0.0000 </r>
       </set>
       <set comment="band 20">
        <r>  0.0000  0.0000  0.0000  0.0000  0.0210  0.0000  0.0000  0.0000  0.0000 </r>
        <r>  0.0116  0.0000  0.0515  0.0000  0.0000  0.0000  0.6736  0.0000  0.0000 </r>
        <r>  0.0412  0.0000  0.1300  0.0000  0.0000  0.0000  0.0000  0.0000  0.0000 </r>
        <r>  0.0000  0.0322  0.0000  0.0000  0.0000  0.0000  0.0000  0.0000  0.0000 </r>
        <r>  0.0000  0.0000  0.0000  0.0322  0.0000  0.0000  0.0000  0.0000  0.0000 </r>
       </set>
      </set>
      <set comment="kpoint 10">
       <set comment="band 1">
        <r>  0.9785  0.0000  0.0000  0.0000  0.0000  0.0000  0.0000  0.0000  0.0000 </r>
        <r>  0.0000  0.0000  0.0000  0.0000  0.0000  0.0000  0.0000  0.0000  0.0000 </r>
        <r>  0.0000  0.0000  0.0000  0.0000  0.0000  0.0000  0.0000  0.0000  0.0000 </r>
        <r>  0.0000  0.0000  0.0000  0.0000  0.0000  0.0000  0.0000  0.0000  0.0000 </r>
        <r>  0.0000  0.0000  0.0000  0.0000  0.0000  0.0000  0.0000  0.0000  0.0000 </r>
       </set>
       <set comment="band 2">
        <r>  0.0000  0.0000  0.0000  0.0000  0.0006  0.0047  0.0000  0.0004  0.0000 </r>
        <r>  0.0000  0.0082  0.0113  0.0878  0.0000  0.0000  0.0000  0.0000  0.0000 </r>
        <r>  0.0814  0.0000  0.0000  0.0000  0.0000  0.0000  0.0000  0.0000  0.0000 </r>
        <r>  0.0594  0.0000  0.0000  0.0000  0.0000  0.0000  0.0000  0.0000  0.0000 </r>
        <r>  0.6330  0.0000  0.0000  0.0000  0.0000  0.0000  0.0000  0.0000  0.0000 </r>
       </set>
       <set comment="band 3">
        <r>  0.0000  0.0000  0.0000  0.0000  0.0010  0.0008  0.0000  0.0040  0.0000 </r>
        <r>  0.0000  0.0741  0.0178  0.0154  0.0000  0.0000  0.0000  0.0000  0.0000 </r>
        <r>  0.1281  0.0000  0.0000  0.0000  0.0000  0.0000  0.0000  0.0000  0.0000 </r>
        <r>  0.5348  0.0000  0.0000  0.0000  0.0000  0.0000  0.0000  0.0000  0.0000 </r>
        <r>  0.1109  0.0000  0.0000  0.0000  0.0000  0.0000  0.0000  0.0000  0.0000 </r>
       </set>
       <set comment="band 4">
        <r>  0.0000  0.0000  0.0000  0.0000  0.0042  0.0002  0.0000  0.0013  0.0000 </r>
        <r>  0.0000  0.0249  0.0782  0.0041  0.0000  0.0000  0.0000  0.0000  0.0000 </r>
        <r>  0.5643  0.0000  0.0000  0.0000  0.0000  0.0000  0.0000  0.0000  0.0000 </r>
        <r>  0.1796  0.0000  0.0000  0.0000  0.0000  0.0000  0.0000  0.0000  0.0000 </r>
        <r>  0.0299  0.0000  0.0000  0.0000  0.0000  0.0000  0.0000  0.0000  0.0000 </r>
       </set>
       <set comment="band 5">
        <r>  0.0000  0.0250  0.3929  0.4696  0.0000  0.0000  0.0000  0.0000  0.0000 </r>
        <r>  0.0000  0.0000  0.0000  0.0000  0.0029  0.0035  0.0000  0.0002  0.0000 </r>
        <r>  0.0000  0.0041  0.0000  0.0002  0.0000  0.0000  0.0000  0.0000  0.0000 </r>
        <r>  0.0000  0.0000  0.0041  0.0034  0.0000  0.0000  0.0000  0.0000  0.0000 </r>
        <r>  0.0000  0.0034  0.0002  0.0000  0.0000  0.0000  0.0000  0.0000  0.0000 </r>
       </set>
       <set comment="band 6">
        <r>  0.0000  0.5136  0.2621  0.1118  0.0000  0.0000  0.0000  0.0000  0.0000 </r>
        <r>  0.0000  0.0000  0.0000  0.0000  0.0019  0.0008  0.0000  0.0038  0.0000 </r>
        <r>  0.0000  0.0010  0.0000  0.0045  0.0000  0.0000  0.0000  0.0000  0.0000 </r>
        <r>  0.0000  0.0000  0.0010  0.0023  0.0000  0.0000  0.0000  0.0000  0.0000 </r>
        <r>  0.0000  0.0023  0.0045  0.0000  0.0000  0.0000  0.0000  0.0000  0.0000 </r>
       </set>
       <set comment="band 7">
        <r>  0.0000  0.3489  0.2325  0.3061  0.0000  0.0000  0.0000  0.0000  0.0000 </r>
        <r>  0.0000  0.0000  0.0000  0.0000  0.0017  0.0023  0.0000  0.0026  0.0000 </r>
        <r>  0.0000  0.0027  0.0000  0.0030  0.0000  0.0000  0.0000  0.0000  0.0000 </r>
        <r>  0.0000  0.0000  0.0027  0.0020  0.0000  0.0000  0.0000  0.0000  0.0000 </r>
        <r>  0.0000  0.0020  0.0030  0.0000  0.0000  0.0000  0.0000  0.0000  0.0000 </r>
       </set>
       <set comment="band 8">
        <r>  0.0000  0.0000  0.0000  0.0000  0.0000  0.0000  0.0000  0.0000  0.0000 </r>
        <r>  0.4249  0.0000  0.0000  0.0000  0.0000  0.0000  0.0000  0.0000  0.0000 </r>
        <r>  0.0000  0.0000  0.1797  0.0000  0.0000  0.0000  0.0000  0.0000  0.0000 </r>
        <r>  0.0000  0.1797  0.0000  0.0000  0.0000  0.0000  0.0000  0.0000  0.0000 </r>
        <r>  0.0000  0.0000  0.0000  0.1797  0.0000  0.0000  0.0000  0.0000  0.0000 </r>
       </set>
       <set comment="band 9">
        <r>  0.0000  0.0000  0.0000  0.0000  0.0000  0.0000  0.0000  0.0000  0.0000 </r>
        <r>  0.0000  0.0000  0.0000  0.0000  0.0000  0.0000  0.2816  0.0000  0.3084 </r>
        <r>  0.0000  0.0000  0.1565  0.0000  0.0000  0.0000  0.0000  0.0000  0.0000 </r>
        <r>  0.0000  0.0740  0.0000  0.0000  0.0000  0.0000  0.0000  0.0000  0.0000 </r>
        <r>  0.0000  0.0000  0.0000  0.2615  0.0000  0.0000  0.0000  0.0000  0.0000 </r>
       </set>
       <set comment="band 10">
        <r>  0.0000  0.0000  0.0000  0.0000  0.0000  0.0000  0.0000  0.0000  0.0000 </r>
        <r>  0.0000  0.0000  0.0000  0.0000  0.0000  0.0000  0.3084  0.0000  0.2816 </r>
        <r>  0.0000  0.0000  0.1715  0.0000  0.0000  0.0000  0.0000  0.0000  0.0000 </r>
        <r>  0.0000  0.2540  0.0000  0.0000  0.0000  0.0000  0.0000  0.0000  0.0000 </r>
        <r>  0.0000  0.0000  0.0000  0.0666  0.0000  0.0000  0.0000  0.0000  0.0000 </r>
       </set>
       <set comment="band 11">
        <r>  0.0000  0.0016  0.0705  0.0170  0.0000  0.0000  0.0000  0.0000  0.0000 </r>
        <r>  0.0000  0.0000  0.0000  0.0000  0.1950  0.0469  0.0000  0.0044  0.0000 </r>
        <r>  0.0000  0.0412  0.0000  0.0038  0.0000  0.0000  0.0000  0.0000  0.0000 </r>
        <r>  0.0000  0.0000  0.0412  0.1711  0.0000  0.0000  0.0000  0.0000  0.0000 </r>
        <r>  0.0000  0.1711  0.0038  0.0000  0.0000  0.0000  0.0000  0.0000  0.0000 </r>
       </set>
       <set comment="band 12">
        <r>  0.0000  0.0023  0.0183  0.0683  0.0000  0.0000  0.0000  0.0000  0.0000 </r>
        <r>  0.0000  0.0000  0.0000  0.0000  0.0508  0.1891  0.0000  0.0065  0.0000 </r>
        <r>  0.0000  0.1659  0.0000  0.0057  0.0000  0.0000  0.0000  0.0000  0.0000 </r>
        <r>  0.0000  0.0000  0.1659  0.0445  0.0000  0.0000  0.0000  0.0000  0.0000 </r>
        <r>  0.0000  0.0445  0.0057  0.0000  0.0000  0.0000  0.0000  0.0000  0.0000 </r>
       </set>
       <set comment="band 13">
        <r>  0.0000  0.0851  0.0002  0.0037  0.0000  0.0000  0.0000  0.0000  0.0000 </r>
        <r>  0.0000  0.0000  0.0000  0.0000  0.0005  0.0103  0.0000  0.2355  0.0000 </r>
        <r>  0.0000  0.0090  0.0000  0.2066  0.0000  0.0000  0.0000  0.0000  0.0000 </r>
        <r>  0.0000  0.0000  0.0090  0.0005  0.0000  0.0000  0.0000  0.0000  0.0000 </r>
        <r>  0.0000  0.0005  0.2066  0.0000  0.0000  0.0000  0.0000  0.0000  0.0000 </r>
       </set>
       <set comment="band 14">
        <r>  0.0000  0.0000  0.0000  0.0000  0.0000  0.0000  0.0000  0.0000  0.0000 </r>
        <r>  0.0000  0.0000  0.0000  0.0000  0.0000  0.0000  0.0000  0.0000  0.0000 </r>
        <r>  0.0000  0.1254  0.0000  0.2332  0.0000  0.0000  0.0000  0.0000  0.0000 </r>
        <r>  0.0000  0.0000  0.1254  0.0341  0.0000  0.0000  0.0000  0.0000  0.0000 </r>
        <r>  0.0000  0.0341  0.2332  0.0000  0.0000  0.0000  0.0000  0.0000  0.0000 </r>
       </set>
       <set comment="band 15">
        <r>  0.0000  0.0000  0.0000  0.0000  0.0000  0.0000  0.0000  0.0000  0.0000 </r>
        <r>  0.0000  0.0000  0.0000  0.0000  0.0000  0.0000  0.0000  0.0000  0.0000 </r>
        <r>  0.0000  0.0360  0.0000  0.0583  0.0000  0.0000  0.0000  0.0000  0.0000 </r>
        <r>  0.0000  0.0000  0.0360  0.2984  0.0000  0.0000  0.0000  0.0000  0.0000 </r>
        <r>  0.0000  0.2984  0.0583  0.0000  0.0000  0.0000  0.0000  0.0000  0.0000 </r>
       </set>
       <set comment="band 16">
        <r>  0.0000  0.0000  0.0000  0.0000  0.0000  0.0000  0.0000  0.0000  0.0000 </r>
        <r>  0.0000  0.0000  0.0000  0.0000  0.0000  0.0000  0.0000  0.0000  0.0000 </r>
        <r>  0.0000  0.2313  0.0000  0.1012  0.0000  0.0000  0.0000  0.0000  0.0000 </r>
        <r>  0.0000  0.0000  0.2313  0.0603  0.0000  0.0000  0.0000  0.0000  0.0000 </r>
        <r>  0.0000  0.0603  0.1012  0.0000  0.0000  0.0000  0.0000  0.0000  0.0000 </r>
       </set>
       <set comment="band 17">
        <r>  0.0000  0.0088  0.0000  0.0002  0.0000  0.0000  0.0000  0.0000  0.0000 </r>
        <r>  0.0000  0.0000  0.0000  0.0000  0.0001  0.0159  0.0000  0.7647  0.0000 </r>
        <r>  0.0000  0.0016  0.0000  0.0748  0.0000  0.0000  0.0000  0.0000  0.0000 </r>
        <r>  0.0000  0.0000  0.0016  0.0000  0.0000  0.0000  0.0000  0.0000  0.0000 </r>
        <r>  0.0000  0.0000  0.0748  0.0000  0.0000  0.0000  0.0000  0.0000  0.0000 </r>
       </set>
       <set comment="band 18">
        <r>  0.0000  0.0002  0.0000  0.0088  0.0000  0.0000  0.0000  0.0000  0.0000 </r>
        <r>  0.0000  0.0000  0.0000  0.0000  0.0002  0.7646  0.0000  0.0159  0.0000 </r>
        <r>  0.0000  0.0748  0.0000  0.0016  0.0000  0.0000  0.0000  0.0000  0.0000 </r>
        <r>  0.0000  0.0000  0.0748  0.0000  0.0000  0.0000  0.0000  0.0000  0.0000 </r>
        <r>  0.0000  0.0000  0.0016  0.0000  0.0000  0.0000  0.0000  0.0000  0.0000 </r>
       </set>
       <set comment="band 19">
        <r>  0.0000  0.0000  0.0090  0.0000  0.0000  0.0000  0.0000  0.0000  0.0000 </r>
        <r>  0.0000  0.0000  0.0000  0.0000  0.7804  0.0002  0.0000  0.0001  0.0000 </r>
        <r>  0.0000  0.0000  0.0000  0.0000  0.0000  0.0000  0.0000  0.0000  0.0000 </r>
        <r>  0.0000  0.0000  0.0000  0.0763  0.0000  0.0000  0.0000  0.0000  0.0000 </r>
        <r>  0.0000  0.0763  0.0000  0.0000  0.0000  0.0000  0.0000  0.0000  0.0000 </r>
       </set>
       <set comment="band 20">
        <r>  0.0000  0.0000  0.0000  0.0000  0.0551  0.2706  0.0000  0.1708  0.0000 </r>
        <r>  0.0000  0.0114  0.0037  0.0181  0.0000  0.0000  0.0000  0.0000  0.0000 </r>
        <r>  0.0089  0.0000  0.0000  0.0000  0.0000  0.0000  0.0000  0.0000  0.0000 </r>
        <r>  0.0275  0.0000  0.0000  0.0000  0.0000  0.0000  0.0000  0.0000  0.0000 </r>
        <r>  0.0436  0.0000  0.0000  0.0000  0.0000  0.0000  0.0000  0.0000  0.0000 </r>
       </set>
      </set>
     </set>
    </set>
   </array>
  </projected>
 </calculation>
 <structure name="finalpos" >
  <crystal>
   <varray name="basis" >
    <v>       3.78458866      -0.00000000      -0.00000000 </v>
    <v>       0.00000000       3.78458866      -0.00000000 </v>
    <v>       0.00000000       0.00000000       3.78458866 </v>
   </varray>
   <i name="volume">     54.20708486 </i>
   <varray name="rec_basis" >
    <v>       0.26422951      -0.00000000      -0.00000000 </v>
    <v>       0.00000000       0.26422951      -0.00000000 </v>
    <v>       0.00000000       0.00000000       0.26422951 </v>
   </varray>
  </crystal>
  <varray name="positions" >
   <v>       0.00000000       0.00000000       0.00000000 </v>
   <v>       0.50000000       0.50000000       0.50000000 </v>
   <v>       0.50000000       0.50000000       0.00000000 </v>
   <v>       0.50000000       0.00000000       0.50000000 </v>
   <v>       0.00000000       0.50000000       0.50000000 </v>
  </varray>
 </structure>
</modeling>
