unknown system                          
           1
     3.846520    0.000000    0.000000
     0.000000    3.846520    0.000000
     0.000000    0.000000    3.846520
   Sr   V    O 
   1   1   3
Direct configuration=     1
   0.00000000  0.00000000  0.00000000
   0.50000000  0.50000000  0.50000000
   0.50000000  0.50000000  0.00000000
   0.50000000  0.00000000  0.50000000
   0.00000000  0.50000000  0.50000000
unknown system                          
           1
     3.718841   -0.000000   -0.000000
     0.000000    3.718841   -0.000000
     0.000000    0.000000    3.718841
   Sr   V    O 
   1   1   3
Direct configuration=     2
   0.00000000  0.00000000  0.00000000
   0.50000000  0.50000000  0.50000000
   0.50000000  0.50000000  0.00000000
   0.50000000  0.00000000  0.50000000
   0.00000000  0.50000000  0.50000000
unknown system                          
           1
     3.785323   -0.000000   -0.000000
     0.000000    3.785323   -0.000000
     0.000000    0.000000    3.785323
   Sr   V    O 
   1   1   3
Direct configuration=     3
   0.00000000  0.00000000  0.00000000
   0.50000000  0.50000000  0.50000000
   0.50000000  0.50000000  0.00000000
   0.50000000  0.00000000  0.50000000
   0.00000000  0.50000000  0.50000000
unknown system                          
           1
     3.784589   -0.000000   -0.000000
     0.000000    3.784589   -0.000000
     0.000000    0.000000    3.784589
   Sr   V    O 
   1   1   3
Direct configuration=     4
   0.00000000  0.00000000  0.00000000
   0.50000000  0.50000000  0.50000000
   0.50000000  0.50000000  0.00000000
   0.50000000  0.00000000  0.50000000
   0.00000000  0.50000000  0.50000000
