       N       E                     dE             d eps       ncg     rms          rms(c)
DAV:   1    -0.815687923370E+02   -0.81569E+02   -0.43841E-05  2990   0.187E-01    0.325E-02
DAV:   2    -0.815688053068E+02   -0.12970E-04   -0.18226E-04  3838   0.364E-01
   1 F= -.81568805E+02 E0= -.81566444E+02  d E =-.472169E-02
