 vasp.5.4.4.18Apr17-6-g9f103f2a35 (build Apr 08 2019 17:17:42) complex          
  
 executed on             LinuxIFC date 2019.05.09  18:44:30
 running on   72 total cores
 distrk:  each k-point on    1 cores,   72 groups
 distr:  one band on NCORES_PER_BAND=   1 cores,    1 groups


--------------------------------------------------------------------------------------------------------


 INCAR:
 POTCAR:   PAW La 17Apr2000                       
 POTCAR:   PAW Ni 03Mar1998                       
 POTCAR:   PAW O 31May2000                        

 ----------------------------------------------------------------------------- 
|                                                                             |
|           W    W    AA    RRRRR   N    N  II  N    N   GGGG   !!!           |
|           W    W   A  A   R    R  NN   N  II  NN   N  G    G  !!!           |
|           W    W  A    A  R    R  N N  N  II  N N  N  G       !!!           |
|           W WW W  AAAAAA  RRRRR   N  N N  II  N  N N  G  GGG   !            |
|           WW  WW  A    A  R   R   N   NN  II  N   NN  G    G                |
|           W    W  A    A  R    R  N    N  II  N    N   GGGG   !!!           |
|                                                                             |
|      For optimal performance we recommend to set                            |
|        NCORE= 4 - approx SQRT( number of cores)                             |
|      NCORE specifies how many cores store one orbital (NPAR=cpu/NCORE).     |
|      This setting can  greatly improve the performance of VASP for DFT.     |
|      The default,   NCORE=1            might be grossly inefficient         |
|      on modern multi-core architectures or massively parallel machines.     |
|      Do your own testing !!!!                                               |
|      Unfortunately you need to use the default for GW and RPA calculations. |
|      (for HF NCORE is supported but not extensively tested yet)             |
|                                                                             |
 ----------------------------------------------------------------------------- 


 ----------------------------------------------------------------------------- 
|                                                                             |
|           W    W    AA    RRRRR   N    N  II  N    N   GGGG   !!!           |
|           W    W   A  A   R    R  NN   N  II  NN   N  G    G  !!!           |
|           W    W  A    A  R    R  N N  N  II  N N  N  G       !!!           |
|           W WW W  AAAAAA  RRRRR   N  N N  II  N  N N  G  GGG   !            |
|           WW  WW  A    A  R   R   N   NN  II  N   NN  G    G                |
|           W    W  A    A  R    R  N    N  II  N    N   GGGG   !!!           |
|                                                                             |
|      You have enabled k-point parallelism (KPAR>1).                         |
|      This developmental code was originally  written by Paul Kent at ORNL,  |
|      and carefully double checked in Vienna.                                |
|      GW as well as linear response parallelism added by Martijn Marsman     |
|      and Georg Kresse.                                                      |
|      Carefully verify results versus KPAR=1.                                |
|      Report problems to Paul Kent and Vienna.                               |
|                                                                             |
 ----------------------------------------------------------------------------- 

 POTCAR:   PAW La 17Apr2000                       
   VRHFIN =La : [core=Kr4d]                                                     
   LEXCH  = CA                                                                  
   EATOM  =   869.4274 eV,   63.9011 Ry                                         
                                                                                
   TITEL  = PAW La 17Apr2000                                                    
   LULTRA =        F    use ultrasoft PP ?                                      
   IUNSCR =        1    unscreen: 0-lin 1-nonlin 2-no                           
   RPACOR =    2.300    partial core radius                                     
   POMASS =  138.900; ZVAL   =   11.000    mass and valenz                      
   RCORE  =    2.800    outmost cutoff radius                                   
   RWIGS  =    2.900; RWIGS  =    1.535    wigner-seitz radius (au A)           
   ENMAX  =  219.044; ENMIN  =  164.283 eV                                      
   RCLOC  =    1.601    cutoff for local pot                                    
   LCOR   =        T    correct aug charges                                     
   LPAW   =        T    paw PP                                                  
   EAUG   =  583.575                                                            
   DEXC   =     .000                                                            
   RMAX   =    3.115    core radius for proj-oper                               
   RAUG   =    1.300    factor for augmentation sphere                          
   RDEP   =    2.802    core radius for depl-charge                             
   QCUT   =   -4.012; QGAM   =    8.025    optimization parameters              
                                                                                
   Description                                                                  
     l     E      TYP  RCUT    TYP  RCUT                                        
     0   .000     23  2.800                                                     
     0   .000     23  2.800                                                     
     1   .000     23  2.500                                                     
     1  2.000     23  2.500                                                     
     2   .000     23  2.500                                                     
     2   .000     23  2.500                                                     
     3   .000     23  2.800                                                     
     3   .000     23  2.800                                                     
  local pseudopotential read in
  partial core-charges read in
  atomic valenz-charges read in
  non local Contribution for L=           0  read in
    real space projection operators read in
  non local Contribution for L=           0  read in
    real space projection operators read in
  non local Contribution for L=           1  read in
    real space projection operators read in
  non local Contribution for L=           1  read in
    real space projection operators read in
  non local Contribution for L=           2  read in
    real space projection operators read in
  non local Contribution for L=           2  read in
    real space projection operators read in
  non local Contribution for L=           3  read in
    real space projection operators read in
  non local Contribution for L=           3  read in
    real space projection operators read in
    PAW grid and wavefunctions read in
 
   number of l-projection  operators is LMAX  =           8
   number of lm-projection operators is LMMAX =          32
 
 POTCAR:   PAW Ni 03Mar1998                       
   VRHFIN =Ni:                                                                  
   LEXCH  = CA                                                                  
   EATOM  =  1081.8021 eV,   79.5102 Ry                                         
                                                                                
   TITEL  = PAW Ni 03Mar1998                                                    
   LULTRA =        F    use ultrasoft PP ?                                      
   IUNSCR =        1    unscreen: 0-lin 1-nonlin 2-no                           
   RPACOR =    2.000    partial core radius                                     
   POMASS =   58.690; ZVAL   =   10.000    mass and valenz                      
   RCORE  =    2.300    outmost cutoff radius                                   
   RWIGS  =    2.430; RWIGS  =    1.286    wigner-seitz radius (au A)           
   ENMAX  =  269.618; ENMIN  =  202.214 eV                                      
   RCLOC  =    1.681    cutoff for local pot                                    
   LCOR   =        T    correct aug charges                                     
   LPAW   =        T    paw PP                                                  
   EAUG   =  544.565                                                            
   DEXC   =    -.007                                                            
   RMAX   =    2.808    core radius for proj-oper                               
   RAUG   =    1.300    factor for augmentation sphere                          
   RDEP   =    2.390    core radius for depl-charge                             
   QCUT   =   -4.452; QGAM   =    8.903    optimization parameters              
                                                                                
   Description                                                                  
     l     E      TYP  RCUT    TYP  RCUT                                        
     2   .000     23  2.300                                                     
     2   .000     23  2.300                                                     
     0   .000     23  2.300                                                     
     0   .000     23  2.300                                                     
     1  -.200     23  2.300                                                     
     1   .000     23  2.300                                                     
     3   .000      7   .000                                                     
  local pseudopotential read in
  partial core-charges read in
  atomic valenz-charges read in
  non local Contribution for L=           2  read in
    real space projection operators read in
  non local Contribution for L=           2  read in
    real space projection operators read in
  non local Contribution for L=           0  read in
    real space projection operators read in
  non local Contribution for L=           0  read in
    real space projection operators read in
  non local Contribution for L=           1  read in
    real space projection operators read in
  non local Contribution for L=           1  read in
    real space projection operators read in
    PAW grid and wavefunctions read in
 
   number of l-projection  operators is LMAX  =           6
   number of lm-projection operators is LMMAX =          18
 
 POTCAR:   PAW O 31May2000                        
   VRHFIN =O: s2p4                                                              
   LEXCH  = CA                                                                  
   EATOM  =   431.4447 eV,   31.7103 Ry                                         
                                                                                
   TITEL  = PAW O 31May2000                                                     
   LULTRA =        F    use ultrasoft PP ?                                      
   IUNSCR =        0    unscreen: 0-lin 1-nonlin 2-no                           
   RPACOR =     .000    partial core radius                                     
   POMASS =   16.000; ZVAL   =    6.000    mass and valenz                      
   RCORE  =    1.520    outmost cutoff radius                                   
   RWIGS  =    1.550; RWIGS  =     .820    wigner-seitz radius (au A)           
   ENMAX  =  400.000; ENMIN  =  300.000 eV                                      
   ICORE  =        2    local potential                                         
   LCOR   =        T    correct aug charges                                     
   LPAW   =        T    paw PP                                                  
   EAUG   =  605.392                                                            
   DEXC   =     .000                                                            
   RMAX   =    2.265    core radius for proj-oper                               
   RAUG   =    1.300    factor for augmentation sphere                          
   RDEP   =    1.550    radius for radial grids                                 
   QCUT   =   -5.518; QGAM   =   11.037    optimization parameters              
                                                                                
   Description                                                                  
     l     E      TYP  RCUT    TYP  RCUT                                        
     0   .000     23  1.200                                                     
     0  -.700     23  1.200                                                     
     1   .000     23  1.520                                                     
     1   .600     23  1.520                                                     
     2   .000      7  1.500                                                     
  local pseudopotential read in
  atomic valenz-charges read in
  non local Contribution for L=           0  read in
    real space projection operators read in
  non local Contribution for L=           0  read in
    real space projection operators read in
  non local Contribution for L=           1  read in
    real space projection operators read in
  non local Contribution for L=           1  read in
    real space projection operators read in
    PAW grid and wavefunctions read in
 
   number of l-projection  operators is LMAX  =           4
   number of lm-projection operators is LMMAX =           8
 
 PAW La 17Apr2000                       :
 energy of atom  1       EATOM= -869.4274
 kinetic energy error for atom=    0.0007 (will be added to EATOM!!)
 PAW Ni 03Mar1998                       :
 energy of atom  2       EATOM=-1081.8021
 kinetic energy error for atom=    0.0019 (will be added to EATOM!!)
 PAW O 31May2000                        :
 energy of atom  3       EATOM= -431.4447
 kinetic energy error for atom=    0.0165 (will be added to EATOM!!)
 
 
 POSCAR: La Ni O                                 
  positions in direct lattice
  No initial velocities read in
 exchange correlation table for  LEXCH =        2
   RHO(1)=    0.500       N(1)  =     2000
   RHO(2)=  100.500       N(2)  =     4000
 


--------------------------------------------------------------------------------------------------------


 ion  position               nearest neighbor table
   1  0.250  0.250  0.250-   6 2.44   7 2.44   5 2.44   8 2.65   8 2.65  10 2.65   9 2.65   9 2.65
                            10 2.65   4 3.21   3 3.21   4 3.27   3 3.27   4 3.27   3 3.27   4 3.27
   2  0.750  0.750  0.750-   9 2.44  10 2.44   8 2.44   5 2.65   5 2.65   6 2.65   7 2.65   6 2.65
                             7 2.65   4 3.21   3 3.21   3 3.27   4 3.27   3 3.27   4 3.27   3 3.27
   3  0.000  0.000  0.000-   5 1.90   8 1.90   6 1.90   9 1.90   7 1.90  10 1.90   1 3.21   2 3.21
                             2 3.27   1 3.27   2 3.27   2 3.27   1 3.27   1 3.27
   4  0.500  0.500  0.500-   5 1.90   8 1.90   7 1.90  10 1.90   9 1.90   6 1.90   1 3.21   2 3.21
                             1 3.27   2 3.27   1 3.27   1 3.27   2 3.27   2 3.27
   5  0.705  0.795  0.250-   3 1.90   4 1.90   1 2.44   2 2.65   2 2.65
   6  0.795  0.250  0.705-   3 1.90   4 1.90   1 2.44   2 2.65   2 2.65
   7  0.250  0.705  0.795-   4 1.90   3 1.90   1 2.44   2 2.65   2 2.65
   8  0.295  0.205  0.750-   3 1.90   4 1.90   2 2.44   1 2.65   1 2.65
   9  0.205  0.750  0.295-   3 1.90   4 1.90   2 2.44   1 2.65   1 2.65
  10  0.750  0.295  0.205-   4 1.90   3 1.90   2 2.44   1 2.65   1 2.65
 
  LATTYP: Found a trigonal (rhomboedric) cell.
 ALAT       =     5.2795184011
 COS(alpha) =     0.4857011821
  
  Lattice vectors:
  
 A1 = (   1.5457044100,  -2.6772385700,   4.2797787400)
 A2 = (   1.5457044100,   2.6772385700,   4.2797787400)
 A3 = (  -3.0914088100,   0.0000000000,   4.2797787400)


Analysis of symmetry for initial positions (statically):
=====================================================================
 Subroutine PRICEL returns:
 Original cell was already a primitive cell.
 

 Routine SETGRP: Setting up the symmetry group for a 
 trigonal (rhombohedral) supercell.


 Subroutine GETGRP returns: Found 12 space group operations
 (whereof  6 operations were pure point group operations)
 out of a pool of 12 trial point group operations.


The static configuration has the point symmetry S_6 .
 The point group associated with its full space group is D_3d.


Analysis of symmetry for dynamics (positions and initial velocities):
=====================================================================
 Subroutine PRICEL returns:
 Original cell was already a primitive cell.
 

 Routine SETGRP: Setting up the symmetry group for a 
 trigonal (rhombohedral) supercell.


 Subroutine GETGRP returns: Found 12 space group operations
 (whereof  6 operations were pure point group operations)
 out of a pool of 12 trial point group operations.


The dynamic configuration has the point symmetry S_6 .
 The point group associated with its full space group is D_3d.


 Subroutine INISYM returns: Found 12 space group operations
 (whereof  6 operations are pure point group operations),
 and found     1 'primitive' translations

 
 
 KPOINTS: coord.13.02                             

Automatic generation of k-mesh.
Space group operators:
 irot       det(A)        alpha          n_x          n_y          n_z        tau_x        tau_y        tau_z
    1     1.000000     0.000000     1.000000     0.000000     0.000000     0.000000     0.000000     0.000000
    2    -1.000000     0.000000     1.000000     0.000000     0.000000     0.000000     0.000000     0.000000
    3     1.000000   120.000000    -0.000000    -0.000000    -1.000000     0.000000     0.000000     0.000000
    4    -1.000000   120.000000    -0.000000    -0.000000    -1.000000     0.000000     0.000000     0.000000
    5     1.000000   120.000000     0.000000    -0.000000     1.000000     0.000000     0.000000     0.000000
    6    -1.000000   120.000000     0.000000    -0.000000     1.000000     0.000000     0.000000     0.000000
    7     1.000000   180.000000    -0.866025    -0.500000     0.000000     0.500000     0.500000     0.500000
    8    -1.000000   180.000000    -0.866025    -0.500000     0.000000     0.500000     0.500000     0.500000
    9     1.000000   180.000000     0.000000     1.000000     0.000000     0.500000     0.500000     0.500000
   10    -1.000000   180.000000     0.000000     1.000000     0.000000     0.500000     0.500000     0.500000
   11     1.000000   180.000000    -0.866025     0.500000     0.000000     0.500000     0.500000     0.500000
   12    -1.000000   180.000000    -0.866025     0.500000     0.000000     0.500000     0.500000     0.500000
 
 Subroutine IBZKPT returns following result:
 ===========================================
 
 Found     65 irreducible k-points:
 
 Following reciprocal coordinates:
            Coordinates               Weight
  0.000000  0.000000  0.000000      1.000000
  0.125000  0.000000  0.000000      6.000000
  0.250000  0.000000  0.000000      6.000000
  0.375000  0.000000  0.000000      6.000000
  0.500000  0.000000  0.000000      3.000000
  0.125000  0.125000  0.000000      6.000000
  0.250000  0.125000  0.000000     12.000000
  0.375000  0.125000  0.000000     12.000000
  0.500000  0.125000  0.000000     12.000000
 -0.375000  0.125000 -0.000000     12.000000
 -0.250000  0.125000  0.000000     12.000000
 -0.125000  0.125000  0.000000      6.000000
  0.250000  0.250000  0.000000      6.000000
  0.375000  0.250000  0.000000     12.000000
  0.500000  0.250000  0.000000     12.000000
 -0.375000  0.250000 -0.000000     12.000000
 -0.250000  0.250000  0.000000      6.000000
  0.375000  0.375000  0.000000      6.000000
  0.500000  0.375000  0.000000     12.000000
 -0.375000  0.375000  0.000000      6.000000
  0.500000  0.500000  0.000000      3.000000
  0.125000  0.125000  0.125000      2.000000
  0.250000  0.125000  0.125000      6.000000
  0.375000  0.125000  0.125000      6.000000
  0.500000  0.125000  0.125000      6.000000
 -0.375000  0.125000  0.125000      6.000000
 -0.250000  0.125000  0.125000      6.000000
 -0.125000  0.125000  0.125000      6.000000
  0.250000  0.250000  0.125000      6.000000
  0.375000  0.250000  0.125000     12.000000
  0.500000  0.250000  0.125000     12.000000
 -0.375000  0.250000  0.125000     12.000000
 -0.250000  0.250000  0.125000     12.000000
 -0.125000  0.250000  0.125000     12.000000
  0.375000  0.375000  0.125000      6.000000
  0.500000  0.375000  0.125000     12.000000
 -0.375000  0.375000  0.125000     12.000000
 -0.250000  0.375000  0.125000     12.000000
 -0.125000  0.375000  0.125000     12.000000
  0.500000  0.500000  0.125000      6.000000
 -0.375000  0.500000  0.125000     12.000000
 -0.250000  0.500000  0.125000     12.000000
 -0.125000  0.500000  0.125000      6.000000
 -0.375000 -0.375000  0.125000      6.000000
 -0.250000 -0.375000  0.125000     12.000000
 -0.250000 -0.250000  0.125000      6.000000
  0.250000  0.250000  0.250000      2.000000
  0.375000  0.250000  0.250000      6.000000
  0.500000  0.250000  0.250000      6.000000
 -0.375000  0.250000  0.250000      6.000000
 -0.250000  0.250000  0.250000      6.000000
  0.375000  0.375000  0.250000      6.000000
  0.500000  0.375000  0.250000     12.000000
 -0.375000  0.375000  0.250000     12.000000
 -0.250000  0.375000  0.250000     12.000000
  0.500000  0.500000  0.250000      6.000000
 -0.375000  0.500000  0.250000     12.000000
 -0.250000  0.500000  0.250000      6.000000
 -0.375000 -0.375000  0.250000      6.000000
  0.375000  0.375000  0.375000      2.000000
  0.500000  0.375000  0.375000      6.000000
 -0.375000  0.375000  0.375000      6.000000
  0.500000  0.500000  0.375000      6.000000
 -0.375000  0.500000  0.375000      6.000000
  0.500000  0.500000  0.500000      1.000000
 
 Following cartesian coordinates:
            Coordinates               Weight
  0.000000  0.000000  0.000000      1.000000
  0.013478 -0.023345  0.009736      6.000000
  0.026956 -0.046690  0.019471      6.000000
  0.040435 -0.070035  0.029207      6.000000
  0.053913 -0.093380  0.038943      3.000000
  0.026956  0.000000  0.019471      6.000000
  0.040435 -0.023345  0.029207     12.000000
  0.053913 -0.046690  0.038943     12.000000
  0.067391 -0.070035  0.048679     12.000000
 -0.026956  0.093380 -0.019471     12.000000
 -0.013478  0.070035 -0.009736     12.000000
  0.000000  0.046690  0.000000      6.000000
  0.053913  0.000000  0.038943      6.000000
  0.067391 -0.023345  0.048679     12.000000
  0.080869 -0.046690  0.058414     12.000000
 -0.013478  0.116725 -0.009736     12.000000
  0.000000  0.093380  0.000000      6.000000
  0.080869  0.000000  0.058414      6.000000
  0.094347 -0.023345  0.068150     12.000000
  0.000000  0.140070  0.000000      6.000000
  0.107826  0.000000  0.077886      3.000000
  0.000000  0.000000  0.029207      2.000000
  0.013478 -0.023345  0.038943      6.000000
  0.026956 -0.046690  0.048679      6.000000
  0.040435 -0.070035  0.058414      6.000000
 -0.053913  0.093380 -0.009736      6.000000
 -0.040435  0.070035  0.000000      6.000000
 -0.026956  0.046690  0.009736      6.000000
  0.026956  0.000000  0.048679      6.000000
  0.040435 -0.023345  0.058414     12.000000
  0.053913 -0.046690  0.068150     12.000000
 -0.040435  0.116725  0.000000     12.000000
 -0.026956  0.093380  0.009736     12.000000
 -0.013478  0.070035  0.019471     12.000000
  0.053913  0.000000  0.068150      6.000000
  0.067391 -0.023345  0.077886     12.000000
 -0.026956  0.140070  0.009736     12.000000
 -0.013478  0.116725  0.019471     12.000000
  0.000000  0.093380  0.029207     12.000000
  0.080869  0.000000  0.087621      6.000000
 -0.013478  0.163415  0.019471     12.000000
  0.000000  0.140070  0.029207     12.000000
  0.013478  0.116725  0.038943      6.000000
 -0.107826  0.000000 -0.048679      6.000000
 -0.094347 -0.023345 -0.038943     12.000000
 -0.080869  0.000000 -0.029207      6.000000
  0.000000  0.000000  0.058414      2.000000
  0.013478 -0.023345  0.068150      6.000000
  0.026956 -0.046690  0.077886      6.000000
 -0.067391  0.116725  0.009736      6.000000
 -0.053913  0.093380  0.019471      6.000000
  0.026956  0.000000  0.077886      6.000000
  0.040435 -0.023345  0.087621     12.000000
 -0.053913  0.140070  0.019471     12.000000
 -0.040435  0.116725  0.029207     12.000000
  0.053913  0.000000  0.097357      6.000000
 -0.040435  0.163415  0.029207     12.000000
 -0.026956  0.140070  0.038943      6.000000
 -0.134782  0.000000 -0.038943      6.000000
  0.000000  0.000000  0.087621      2.000000
  0.013478 -0.023345  0.097357      6.000000
 -0.080869  0.140070  0.029207      6.000000
  0.026956  0.000000  0.107093      6.000000
 -0.067391  0.163415  0.038943      6.000000
  0.000000  0.000000  0.116828      1.000000
 
 
 Subroutine IBZKPT_HF returns following result:
 ==============================================
 
 Found    512 k-points in 1st BZ
 the following    512 k-points will be used (e.g. in the exchange kernel)
 Following reciprocal coordinates:   # in IRBZ
  0.000000  0.000000  0.000000    0.00195312   1 t-inv F
  0.125000  0.000000  0.000000    0.00195312   2 t-inv F
  0.250000  0.000000  0.000000    0.00195312   3 t-inv F
  0.375000  0.000000  0.000000    0.00195312   4 t-inv F
  0.500000  0.000000  0.000000    0.00195312   5 t-inv F
  0.125000  0.125000  0.000000    0.00195312   6 t-inv F
  0.250000  0.125000  0.000000    0.00195312   7 t-inv F
  0.375000  0.125000  0.000000    0.00195312   8 t-inv F
  0.500000  0.125000  0.000000    0.00195312   9 t-inv F
 -0.375000  0.125000 -0.000000    0.00195312  10 t-inv F
 -0.250000  0.125000  0.000000    0.00195312  11 t-inv F
 -0.125000  0.125000  0.000000    0.00195312  12 t-inv F
  0.250000  0.250000  0.000000    0.00195312  13 t-inv F
  0.375000  0.250000  0.000000    0.00195312  14 t-inv F
  0.500000  0.250000  0.000000    0.00195312  15 t-inv F
 -0.375000  0.250000 -0.000000    0.00195312  16 t-inv F
 -0.250000  0.250000  0.000000    0.00195312  17 t-inv F
  0.375000  0.375000  0.000000    0.00195312  18 t-inv F
  0.500000  0.375000  0.000000    0.00195312  19 t-inv F
 -0.375000  0.375000  0.000000    0.00195312  20 t-inv F
  0.500000  0.500000  0.000000    0.00195312  21 t-inv F
  0.125000  0.125000  0.125000    0.00195312  22 t-inv F
  0.250000  0.125000  0.125000    0.00195312  23 t-inv F
  0.375000  0.125000  0.125000    0.00195312  24 t-inv F
  0.500000  0.125000  0.125000    0.00195312  25 t-inv F
 -0.375000  0.125000  0.125000    0.00195312  26 t-inv F
 -0.250000  0.125000  0.125000    0.00195312  27 t-inv F
 -0.125000  0.125000  0.125000    0.00195312  28 t-inv F
  0.250000  0.250000  0.125000    0.00195312  29 t-inv F
  0.375000  0.250000  0.125000    0.00195312  30 t-inv F
  0.500000  0.250000  0.125000    0.00195312  31 t-inv F
 -0.375000  0.250000  0.125000    0.00195312  32 t-inv F
 -0.250000  0.250000  0.125000    0.00195312  33 t-inv F
 -0.125000  0.250000  0.125000    0.00195312  34 t-inv F
  0.375000  0.375000  0.125000    0.00195312  35 t-inv F
  0.500000  0.375000  0.125000    0.00195312  36 t-inv F
 -0.375000  0.375000  0.125000    0.00195312  37 t-inv F
 -0.250000  0.375000  0.125000    0.00195312  38 t-inv F
 -0.125000  0.375000  0.125000    0.00195312  39 t-inv F
  0.500000  0.500000  0.125000    0.00195312  40 t-inv F
 -0.375000  0.500000  0.125000    0.00195312  41 t-inv F
 -0.250000  0.500000  0.125000    0.00195312  42 t-inv F
 -0.125000  0.500000  0.125000    0.00195312  43 t-inv F
 -0.375000 -0.375000  0.125000    0.00195312  44 t-inv F
 -0.250000 -0.375000  0.125000    0.00195312  45 t-inv F
 -0.250000 -0.250000  0.125000    0.00195312  46 t-inv F
  0.250000  0.250000  0.250000    0.00195312  47 t-inv F
  0.375000  0.250000  0.250000    0.00195312  48 t-inv F
  0.500000  0.250000  0.250000    0.00195312  49 t-inv F
 -0.375000  0.250000  0.250000    0.00195312  50 t-inv F
 -0.250000  0.250000  0.250000    0.00195312  51 t-inv F
  0.375000  0.375000  0.250000    0.00195312  52 t-inv F
  0.500000  0.375000  0.250000    0.00195312  53 t-inv F
 -0.375000  0.375000  0.250000    0.00195312  54 t-inv F
 -0.250000  0.375000  0.250000    0.00195312  55 t-inv F
  0.500000  0.500000  0.250000    0.00195312  56 t-inv F
 -0.375000  0.500000  0.250000    0.00195312  57 t-inv F
 -0.250000  0.500000  0.250000    0.00195312  58 t-inv F
 -0.375000 -0.375000  0.250000    0.00195312  59 t-inv F
  0.375000  0.375000  0.375000    0.00195312  60 t-inv F
  0.500000  0.375000  0.375000    0.00195312  61 t-inv F
 -0.375000  0.375000  0.375000    0.00195312  62 t-inv F
  0.500000  0.500000  0.375000    0.00195312  63 t-inv F
 -0.375000  0.500000  0.375000    0.00195312  64 t-inv F
  0.500000  0.500000  0.500000    0.00195312  65 t-inv F
 -0.125000 -0.000000  0.000000    0.00195312   2 t-inv F
  0.000000  0.125000  0.000000    0.00195312   2 t-inv F
  0.000000 -0.125000 -0.000000    0.00195312   2 t-inv F
  0.000000  0.000000  0.125000    0.00195312   2 t-inv F
 -0.000000  0.000000 -0.125000    0.00195312   2 t-inv F
 -0.250000 -0.000000  0.000000    0.00195312   3 t-inv F
  0.000000  0.250000  0.000000    0.00195312   3 t-inv F
  0.000000 -0.250000 -0.000000    0.00195312   3 t-inv F
  0.000000  0.000000  0.250000    0.00195312   3 t-inv F
 -0.000000  0.000000 -0.250000    0.00195312   3 t-inv F
 -0.375000  0.000000  0.000000    0.00195312   4 t-inv F
  0.000000  0.375000  0.000000    0.00195312   4 t-inv F
  0.000000 -0.375000  0.000000    0.00195312   4 t-inv F
  0.000000  0.000000  0.375000    0.00195312   4 t-inv F
  0.000000  0.000000 -0.375000    0.00195312   4 t-inv F
  0.000000  0.500000  0.000000    0.00195312   5 t-inv F
  0.000000  0.000000  0.500000    0.00195312   5 t-inv F
 -0.125000 -0.125000  0.000000    0.00195312   6 t-inv F
  0.000000  0.125000  0.125000    0.00195312   6 t-inv F
  0.000000 -0.125000 -0.125000    0.00195312   6 t-inv F
  0.125000  0.000000  0.125000    0.00195312   6 t-inv F
 -0.125000  0.000000 -0.125000    0.00195312   6 t-inv F
 -0.250000 -0.125000  0.000000    0.00195312   7 t-inv F
  0.000000  0.250000  0.125000    0.00195312   7 t-inv F
  0.000000 -0.250000 -0.125000    0.00195312   7 t-inv F
  0.125000  0.000000  0.250000    0.00195312   7 t-inv F
 -0.125000  0.000000 -0.250000    0.00195312   7 t-inv F
 -0.250000  0.000000 -0.125000    0.00195312   7 t-inv F
  0.250000  0.000000  0.125000    0.00195312   7 t-inv F
 -0.125000 -0.250000  0.000000    0.00195312   7 t-inv F
  0.125000  0.250000  0.000000    0.00195312   7 t-inv F
  0.000000 -0.125000 -0.250000    0.00195312   7 t-inv F
  0.000000  0.125000  0.250000    0.00195312   7 t-inv F
 -0.375000 -0.125000  0.000000    0.00195312   8 t-inv F
  0.000000  0.375000  0.125000    0.00195312   8 t-inv F
  0.000000 -0.375000 -0.125000    0.00195312   8 t-inv F
  0.125000  0.000000  0.375000    0.00195312   8 t-inv F
 -0.125000  0.000000 -0.375000    0.00195312   8 t-inv F
 -0.375000  0.000000 -0.125000    0.00195312   8 t-inv F
  0.375000  0.000000  0.125000    0.00195312   8 t-inv F
 -0.125000 -0.375000  0.000000    0.00195312   8 t-inv F
  0.125000  0.375000  0.000000    0.00195312   8 t-inv F
  0.000000 -0.125000 -0.375000    0.00195312   8 t-inv F
  0.000000  0.125000  0.375000    0.00195312   8 t-inv F
 -0.500000 -0.125000 -0.000000    0.00195312   9 t-inv F
  0.000000  0.500000  0.125000    0.00195312   9 t-inv F
 -0.000000 -0.500000 -0.125000    0.00195312   9 t-inv F
  0.125000  0.000000  0.500000    0.00195312   9 t-inv F
 -0.125000 -0.000000 -0.500000    0.00195312   9 t-inv F
 -0.500000 -0.000000 -0.125000    0.00195312   9 t-inv F
  0.500000  0.000000  0.125000    0.00195312   9 t-inv F
 -0.125000 -0.500000 -0.000000    0.00195312   9 t-inv F
  0.125000  0.500000  0.000000    0.00195312   9 t-inv F
 -0.000000 -0.125000 -0.500000    0.00195312   9 t-inv F
  0.000000  0.125000  0.500000    0.00195312   9 t-inv F
  0.375000 -0.125000  0.000000    0.00195312  10 t-inv F
 -0.000000 -0.375000  0.125000    0.00195312  10 t-inv F
  0.000000  0.375000 -0.125000    0.00195312  10 t-inv F
  0.125000 -0.000000 -0.375000    0.00195312  10 t-inv F
 -0.125000  0.000000  0.375000    0.00195312  10 t-inv F
  0.375000  0.000000 -0.125000    0.00195312  10 t-inv F
 -0.375000 -0.000000  0.125000    0.00195312  10 t-inv F
 -0.125000  0.375000  0.000000    0.00195312  10 t-inv F
  0.125000 -0.375000 -0.000000    0.00195312  10 t-inv F
  0.000000 -0.125000  0.375000    0.00195312  10 t-inv F
 -0.000000  0.125000 -0.375000    0.00195312  10 t-inv F
  0.250000 -0.125000 -0.000000    0.00195312  11 t-inv F
  0.000000 -0.250000  0.125000    0.00195312  11 t-inv F
 -0.000000  0.250000 -0.125000    0.00195312  11 t-inv F
  0.125000  0.000000 -0.250000    0.00195312  11 t-inv F
 -0.125000 -0.000000  0.250000    0.00195312  11 t-inv F
  0.250000 -0.000000 -0.125000    0.00195312  11 t-inv F
 -0.250000  0.000000  0.125000    0.00195312  11 t-inv F
 -0.125000  0.250000 -0.000000    0.00195312  11 t-inv F
  0.125000 -0.250000  0.000000    0.00195312  11 t-inv F
 -0.000000 -0.125000  0.250000    0.00195312  11 t-inv F
  0.000000  0.125000 -0.250000    0.00195312  11 t-inv F
  0.125000 -0.125000  0.000000    0.00195312  12 t-inv F
  0.000000 -0.125000  0.125000    0.00195312  12 t-inv F
  0.000000  0.125000 -0.125000    0.00195312  12 t-inv F
  0.125000  0.000000 -0.125000    0.00195312  12 t-inv F
 -0.125000  0.000000  0.125000    0.00195312  12 t-inv F
 -0.250000 -0.250000  0.000000    0.00195312  13 t-inv F
  0.000000  0.250000  0.250000    0.00195312  13 t-inv F
  0.000000 -0.250000 -0.250000    0.00195312  13 t-inv F
  0.250000  0.000000  0.250000    0.00195312  13 t-inv F
 -0.250000  0.000000 -0.250000    0.00195312  13 t-inv F
 -0.375000 -0.250000  0.000000    0.00195312  14 t-inv F
  0.000000  0.375000  0.250000    0.00195312  14 t-inv F
  0.000000 -0.375000 -0.250000    0.00195312  14 t-inv F
  0.250000  0.000000  0.375000    0.00195312  14 t-inv F
 -0.250000  0.000000 -0.375000    0.00195312  14 t-inv F
 -0.375000  0.000000 -0.250000    0.00195312  14 t-inv F
  0.375000  0.000000  0.250000    0.00195312  14 t-inv F
 -0.250000 -0.375000  0.000000    0.00195312  14 t-inv F
  0.250000  0.375000  0.000000    0.00195312  14 t-inv F
  0.000000 -0.250000 -0.375000    0.00195312  14 t-inv F
  0.000000  0.250000  0.375000    0.00195312  14 t-inv F
 -0.500000 -0.250000  0.000000    0.00195312  15 t-inv F
  0.000000  0.500000  0.250000    0.00195312  15 t-inv F
  0.000000 -0.500000 -0.250000    0.00195312  15 t-inv F
  0.250000  0.000000  0.500000    0.00195312  15 t-inv F
 -0.250000  0.000000 -0.500000    0.00195312  15 t-inv F
 -0.500000  0.000000 -0.250000    0.00195312  15 t-inv F
  0.500000  0.000000  0.250000    0.00195312  15 t-inv F
 -0.250000 -0.500000  0.000000    0.00195312  15 t-inv F
  0.250000  0.500000  0.000000    0.00195312  15 t-inv F
  0.000000 -0.250000 -0.500000    0.00195312  15 t-inv F
  0.000000  0.250000  0.500000    0.00195312  15 t-inv F
  0.375000 -0.250000  0.000000    0.00195312  16 t-inv F
 -0.000000 -0.375000  0.250000    0.00195312  16 t-inv F
  0.000000  0.375000 -0.250000    0.00195312  16 t-inv F
  0.250000 -0.000000 -0.375000    0.00195312  16 t-inv F
 -0.250000  0.000000  0.375000    0.00195312  16 t-inv F
  0.375000  0.000000 -0.250000    0.00195312  16 t-inv F
 -0.375000 -0.000000  0.250000    0.00195312  16 t-inv F
 -0.250000  0.375000  0.000000    0.00195312  16 t-inv F
  0.250000 -0.375000 -0.000000    0.00195312  16 t-inv F
  0.000000 -0.250000  0.375000    0.00195312  16 t-inv F
 -0.000000  0.250000 -0.375000    0.00195312  16 t-inv F
  0.250000 -0.250000  0.000000    0.00195312  17 t-inv F
  0.000000 -0.250000  0.250000    0.00195312  17 t-inv F
  0.000000  0.250000 -0.250000    0.00195312  17 t-inv F
  0.250000  0.000000 -0.250000    0.00195312  17 t-inv F
 -0.250000  0.000000  0.250000    0.00195312  17 t-inv F
 -0.375000 -0.375000 -0.000000    0.00195312  18 t-inv F
  0.000000  0.375000  0.375000    0.00195312  18 t-inv F
 -0.000000 -0.375000 -0.375000    0.00195312  18 t-inv F
  0.375000  0.000000  0.375000    0.00195312  18 t-inv F
 -0.375000 -0.000000 -0.375000    0.00195312  18 t-inv F
 -0.500000 -0.375000 -0.000000    0.00195312  19 t-inv F
  0.000000  0.500000  0.375000    0.00195312  19 t-inv F
 -0.000000 -0.500000 -0.375000    0.00195312  19 t-inv F
  0.375000  0.000000  0.500000    0.00195312  19 t-inv F
 -0.375000 -0.000000 -0.500000    0.00195312  19 t-inv F
 -0.500000 -0.000000 -0.375000    0.00195312  19 t-inv F
  0.500000  0.000000  0.375000    0.00195312  19 t-inv F
 -0.375000 -0.500000 -0.000000    0.00195312  19 t-inv F
  0.375000  0.500000  0.000000    0.00195312  19 t-inv F
 -0.000000 -0.375000 -0.500000    0.00195312  19 t-inv F
  0.000000  0.375000  0.500000    0.00195312  19 t-inv F
  0.375000 -0.375000  0.000000    0.00195312  20 t-inv F
  0.000000 -0.375000  0.375000    0.00195312  20 t-inv F
  0.000000  0.375000 -0.375000    0.00195312  20 t-inv F
  0.375000  0.000000 -0.375000    0.00195312  20 t-inv F
 -0.375000  0.000000  0.375000    0.00195312  20 t-inv F
  0.000000  0.500000  0.500000    0.00195312  21 t-inv F
  0.500000  0.000000  0.500000    0.00195312  21 t-inv F
 -0.125000 -0.125000 -0.125000    0.00195312  22 t-inv F
 -0.250000 -0.125000 -0.125000    0.00195312  23 t-inv F
  0.125000  0.250000  0.125000    0.00195312  23 t-inv F
 -0.125000 -0.250000 -0.125000    0.00195312  23 t-inv F
  0.125000  0.125000  0.250000    0.00195312  23 t-inv F
 -0.125000 -0.125000 -0.250000    0.00195312  23 t-inv F
 -0.375000 -0.125000 -0.125000    0.00195312  24 t-inv F
  0.125000  0.375000  0.125000    0.00195312  24 t-inv F
 -0.125000 -0.375000 -0.125000    0.00195312  24 t-inv F
  0.125000  0.125000  0.375000    0.00195312  24 t-inv F
 -0.125000 -0.125000 -0.375000    0.00195312  24 t-inv F
 -0.500000 -0.125000 -0.125000    0.00195312  25 t-inv F
  0.125000  0.500000  0.125000    0.00195312  25 t-inv F
 -0.125000 -0.500000 -0.125000    0.00195312  25 t-inv F
  0.125000  0.125000  0.500000    0.00195312  25 t-inv F
 -0.125000 -0.125000 -0.500000    0.00195312  25 t-inv F
  0.375000 -0.125000 -0.125000    0.00195312  26 t-inv F
  0.125000 -0.375000  0.125000    0.00195312  26 t-inv F
 -0.125000  0.375000 -0.125000    0.00195312  26 t-inv F
  0.125000  0.125000 -0.375000    0.00195312  26 t-inv F
 -0.125000 -0.125000  0.375000    0.00195312  26 t-inv F
  0.250000 -0.125000 -0.125000    0.00195312  27 t-inv F
  0.125000 -0.250000  0.125000    0.00195312  27 t-inv F
 -0.125000  0.250000 -0.125000    0.00195312  27 t-inv F
  0.125000  0.125000 -0.250000    0.00195312  27 t-inv F
 -0.125000 -0.125000  0.250000    0.00195312  27 t-inv F
  0.125000 -0.125000 -0.125000    0.00195312  28 t-inv F
  0.125000 -0.125000  0.125000    0.00195312  28 t-inv F
 -0.125000  0.125000 -0.125000    0.00195312  28 t-inv F
  0.125000  0.125000 -0.125000    0.00195312  28 t-inv F
 -0.125000 -0.125000  0.125000    0.00195312  28 t-inv F
 -0.250000 -0.250000 -0.125000    0.00195312  29 t-inv F
  0.125000  0.250000  0.250000    0.00195312  29 t-inv F
 -0.125000 -0.250000 -0.250000    0.00195312  29 t-inv F
  0.250000  0.125000  0.250000    0.00195312  29 t-inv F
 -0.250000 -0.125000 -0.250000    0.00195312  29 t-inv F
 -0.375000 -0.250000 -0.125000    0.00195312  30 t-inv F
  0.125000  0.375000  0.250000    0.00195312  30 t-inv F
 -0.125000 -0.375000 -0.250000    0.00195312  30 t-inv F
  0.250000  0.125000  0.375000    0.00195312  30 t-inv F
 -0.250000 -0.125000 -0.375000    0.00195312  30 t-inv F
 -0.375000 -0.125000 -0.250000    0.00195312  30 t-inv F
  0.375000  0.125000  0.250000    0.00195312  30 t-inv F
 -0.250000 -0.375000 -0.125000    0.00195312  30 t-inv F
  0.250000  0.375000  0.125000    0.00195312  30 t-inv F
 -0.125000 -0.250000 -0.375000    0.00195312  30 t-inv F
  0.125000  0.250000  0.375000    0.00195312  30 t-inv F
 -0.500000 -0.250000 -0.125000    0.00195312  31 t-inv F
  0.125000  0.500000  0.250000    0.00195312  31 t-inv F
 -0.125000 -0.500000 -0.250000    0.00195312  31 t-inv F
  0.250000  0.125000  0.500000    0.00195312  31 t-inv F
 -0.250000 -0.125000 -0.500000    0.00195312  31 t-inv F
 -0.500000 -0.125000 -0.250000    0.00195312  31 t-inv F
  0.500000  0.125000  0.250000    0.00195312  31 t-inv F
 -0.250000 -0.500000 -0.125000    0.00195312  31 t-inv F
  0.250000  0.500000  0.125000    0.00195312  31 t-inv F
 -0.125000 -0.250000 -0.500000    0.00195312  31 t-inv F
  0.125000  0.250000  0.500000    0.00195312  31 t-inv F
  0.375000 -0.250000 -0.125000    0.00195312  32 t-inv F
  0.125000 -0.375000  0.250000    0.00195312  32 t-inv F
 -0.125000  0.375000 -0.250000    0.00195312  32 t-inv F
  0.250000  0.125000 -0.375000    0.00195312  32 t-inv F
 -0.250000 -0.125000  0.375000    0.00195312  32 t-inv F
  0.375000 -0.125000 -0.250000    0.00195312  32 t-inv F
 -0.375000  0.125000  0.250000    0.00195312  32 t-inv F
 -0.250000  0.375000 -0.125000    0.00195312  32 t-inv F
  0.250000 -0.375000  0.125000    0.00195312  32 t-inv F
 -0.125000 -0.250000  0.375000    0.00195312  32 t-inv F
  0.125000  0.250000 -0.375000    0.00195312  32 t-inv F
  0.250000 -0.250000 -0.125000    0.00195312  33 t-inv F
  0.125000 -0.250000  0.250000    0.00195312  33 t-inv F
 -0.125000  0.250000 -0.250000    0.00195312  33 t-inv F
  0.250000  0.125000 -0.250000    0.00195312  33 t-inv F
 -0.250000 -0.125000  0.250000    0.00195312  33 t-inv F
  0.250000 -0.125000 -0.250000    0.00195312  33 t-inv F
 -0.250000  0.125000  0.250000    0.00195312  33 t-inv F
 -0.250000  0.250000 -0.125000    0.00195312  33 t-inv F
  0.250000 -0.250000  0.125000    0.00195312  33 t-inv F
 -0.125000 -0.250000  0.250000    0.00195312  33 t-inv F
  0.125000  0.250000 -0.250000    0.00195312  33 t-inv F
  0.125000 -0.250000 -0.125000    0.00195312  34 t-inv F
  0.125000 -0.125000  0.250000    0.00195312  34 t-inv F
 -0.125000  0.125000 -0.250000    0.00195312  34 t-inv F
  0.250000  0.125000 -0.125000    0.00195312  34 t-inv F
 -0.250000 -0.125000  0.125000    0.00195312  34 t-inv F
  0.125000 -0.125000 -0.250000    0.00195312  34 t-inv F
 -0.125000  0.125000  0.250000    0.00195312  34 t-inv F
 -0.250000  0.125000 -0.125000    0.00195312  34 t-inv F
  0.250000 -0.125000  0.125000    0.00195312  34 t-inv F
 -0.125000 -0.250000  0.125000    0.00195312  34 t-inv F
  0.125000  0.250000 -0.125000    0.00195312  34 t-inv F
 -0.375000 -0.375000 -0.125000    0.00195312  35 t-inv F
  0.125000  0.375000  0.375000    0.00195312  35 t-inv F
 -0.125000 -0.375000 -0.375000    0.00195312  35 t-inv F
  0.375000  0.125000  0.375000    0.00195312  35 t-inv F
 -0.375000 -0.125000 -0.375000    0.00195312  35 t-inv F
 -0.500000 -0.375000 -0.125000    0.00195312  36 t-inv F
  0.125000  0.500000  0.375000    0.00195312  36 t-inv F
 -0.125000 -0.500000 -0.375000    0.00195312  36 t-inv F
  0.375000  0.125000  0.500000    0.00195312  36 t-inv F
 -0.375000 -0.125000 -0.500000    0.00195312  36 t-inv F
 -0.500000 -0.125000 -0.375000    0.00195312  36 t-inv F
  0.500000  0.125000  0.375000    0.00195312  36 t-inv F
 -0.375000 -0.500000 -0.125000    0.00195312  36 t-inv F
  0.375000  0.500000  0.125000    0.00195312  36 t-inv F
 -0.125000 -0.375000 -0.500000    0.00195312  36 t-inv F
  0.125000  0.375000  0.500000    0.00195312  36 t-inv F
  0.375000 -0.375000 -0.125000    0.00195312  37 t-inv F
  0.125000 -0.375000  0.375000    0.00195312  37 t-inv F
 -0.125000  0.375000 -0.375000    0.00195312  37 t-inv F
  0.375000  0.125000 -0.375000    0.00195312  37 t-inv F
 -0.375000 -0.125000  0.375000    0.00195312  37 t-inv F
  0.375000 -0.125000 -0.375000    0.00195312  37 t-inv F
 -0.375000  0.125000  0.375000    0.00195312  37 t-inv F
 -0.375000  0.375000 -0.125000    0.00195312  37 t-inv F
  0.375000 -0.375000  0.125000    0.00195312  37 t-inv F
 -0.125000 -0.375000  0.375000    0.00195312  37 t-inv F
  0.125000  0.375000 -0.375000    0.00195312  37 t-inv F
  0.250000 -0.375000 -0.125000    0.00195312  38 t-inv F
  0.125000 -0.250000  0.375000    0.00195312  38 t-inv F
 -0.125000  0.250000 -0.375000    0.00195312  38 t-inv F
  0.375000  0.125000 -0.250000    0.00195312  38 t-inv F
 -0.375000 -0.125000  0.250000    0.00195312  38 t-inv F
  0.250000 -0.125000 -0.375000    0.00195312  38 t-inv F
 -0.250000  0.125000  0.375000    0.00195312  38 t-inv F
 -0.375000  0.250000 -0.125000    0.00195312  38 t-inv F
  0.375000 -0.250000  0.125000    0.00195312  38 t-inv F
 -0.125000 -0.375000  0.250000    0.00195312  38 t-inv F
  0.125000  0.375000 -0.250000    0.00195312  38 t-inv F
  0.125000 -0.375000 -0.125000    0.00195312  39 t-inv F
  0.125000 -0.125000  0.375000    0.00195312  39 t-inv F
 -0.125000  0.125000 -0.375000    0.00195312  39 t-inv F
  0.375000  0.125000 -0.125000    0.00195312  39 t-inv F
 -0.375000 -0.125000  0.125000    0.00195312  39 t-inv F
  0.125000 -0.125000 -0.375000    0.00195312  39 t-inv F
 -0.125000  0.125000  0.375000    0.00195312  39 t-inv F
 -0.375000  0.125000 -0.125000    0.00195312  39 t-inv F
  0.375000 -0.125000  0.125000    0.00195312  39 t-inv F
 -0.125000 -0.375000  0.125000    0.00195312  39 t-inv F
  0.125000  0.375000 -0.125000    0.00195312  39 t-inv F
 -0.500000 -0.500000 -0.125000    0.00195312  40 t-inv F
  0.125000  0.500000  0.500000    0.00195312  40 t-inv F
 -0.125000 -0.500000 -0.500000    0.00195312  40 t-inv F
  0.500000  0.125000  0.500000    0.00195312  40 t-inv F
 -0.500000 -0.125000 -0.500000    0.00195312  40 t-inv F
  0.375000 -0.500000 -0.125000    0.00195312  41 t-inv F
  0.125000 -0.375000  0.500000    0.00195312  41 t-inv F
 -0.125000  0.375000 -0.500000    0.00195312  41 t-inv F
  0.500000  0.125000 -0.375000    0.00195312  41 t-inv F
 -0.500000 -0.125000  0.375000    0.00195312  41 t-inv F
  0.375000 -0.125000 -0.500000    0.00195312  41 t-inv F
 -0.375000  0.125000  0.500000    0.00195312  41 t-inv F
 -0.500000  0.375000 -0.125000    0.00195312  41 t-inv F
  0.500000 -0.375000  0.125000    0.00195312  41 t-inv F
 -0.125000 -0.500000  0.375000    0.00195312  41 t-inv F
  0.125000  0.500000 -0.375000    0.00195312  41 t-inv F
  0.250000 -0.500000 -0.125000    0.00195312  42 t-inv F
  0.125000 -0.250000  0.500000    0.00195312  42 t-inv F
 -0.125000  0.250000 -0.500000    0.00195312  42 t-inv F
  0.500000  0.125000 -0.250000    0.00195312  42 t-inv F
 -0.500000 -0.125000  0.250000    0.00195312  42 t-inv F
  0.250000 -0.125000 -0.500000    0.00195312  42 t-inv F
 -0.250000  0.125000  0.500000    0.00195312  42 t-inv F
 -0.500000  0.250000 -0.125000    0.00195312  42 t-inv F
  0.500000 -0.250000  0.125000    0.00195312  42 t-inv F
 -0.125000 -0.500000  0.250000    0.00195312  42 t-inv F
  0.125000  0.500000 -0.250000    0.00195312  42 t-inv F
  0.125000 -0.500000 -0.125000    0.00195312  43 t-inv F
  0.125000 -0.125000  0.500000    0.00195312  43 t-inv F
 -0.125000  0.125000 -0.500000    0.00195312  43 t-inv F
  0.500000  0.125000 -0.125000    0.00195312  43 t-inv F
 -0.500000 -0.125000  0.125000    0.00195312  43 t-inv F
  0.375000  0.375000 -0.125000    0.00195312  44 t-inv F
  0.125000 -0.375000 -0.375000    0.00195312  44 t-inv F
 -0.125000  0.375000  0.375000    0.00195312  44 t-inv F
 -0.375000  0.125000 -0.375000    0.00195312  44 t-inv F
  0.375000 -0.125000  0.375000    0.00195312  44 t-inv F
  0.250000  0.375000 -0.125000    0.00195312  45 t-inv F
  0.125000 -0.250000 -0.375000    0.00195312  45 t-inv F
 -0.125000  0.250000  0.375000    0.00195312  45 t-inv F
 -0.375000  0.125000 -0.250000    0.00195312  45 t-inv F
  0.375000 -0.125000  0.250000    0.00195312  45 t-inv F
  0.250000 -0.125000  0.375000    0.00195312  45 t-inv F
 -0.250000  0.125000 -0.375000    0.00195312  45 t-inv F
  0.375000  0.250000 -0.125000    0.00195312  45 t-inv F
 -0.375000 -0.250000  0.125000    0.00195312  45 t-inv F
 -0.125000  0.375000  0.250000    0.00195312  45 t-inv F
  0.125000 -0.375000 -0.250000    0.00195312  45 t-inv F
  0.250000  0.250000 -0.125000    0.00195312  46 t-inv F
  0.125000 -0.250000 -0.250000    0.00195312  46 t-inv F
 -0.125000  0.250000  0.250000    0.00195312  46 t-inv F
 -0.250000  0.125000 -0.250000    0.00195312  46 t-inv F
  0.250000 -0.125000  0.250000    0.00195312  46 t-inv F
 -0.250000 -0.250000 -0.250000    0.00195312  47 t-inv F
 -0.375000 -0.250000 -0.250000    0.00195312  48 t-inv F
  0.250000  0.375000  0.250000    0.00195312  48 t-inv F
 -0.250000 -0.375000 -0.250000    0.00195312  48 t-inv F
  0.250000  0.250000  0.375000    0.00195312  48 t-inv F
 -0.250000 -0.250000 -0.375000    0.00195312  48 t-inv F
 -0.500000 -0.250000 -0.250000    0.00195312  49 t-inv F
  0.250000  0.500000  0.250000    0.00195312  49 t-inv F
 -0.250000 -0.500000 -0.250000    0.00195312  49 t-inv F
  0.250000  0.250000  0.500000    0.00195312  49 t-inv F
 -0.250000 -0.250000 -0.500000    0.00195312  49 t-inv F
  0.375000 -0.250000 -0.250000    0.00195312  50 t-inv F
  0.250000 -0.375000  0.250000    0.00195312  50 t-inv F
 -0.250000  0.375000 -0.250000    0.00195312  50 t-inv F
  0.250000  0.250000 -0.375000    0.00195312  50 t-inv F
 -0.250000 -0.250000  0.375000    0.00195312  50 t-inv F
  0.250000 -0.250000 -0.250000    0.00195312  51 t-inv F
  0.250000 -0.250000  0.250000    0.00195312  51 t-inv F
 -0.250000  0.250000 -0.250000    0.00195312  51 t-inv F
  0.250000  0.250000 -0.250000    0.00195312  51 t-inv F
 -0.250000 -0.250000  0.250000    0.00195312  51 t-inv F
 -0.375000 -0.375000 -0.250000    0.00195312  52 t-inv F
  0.250000  0.375000  0.375000    0.00195312  52 t-inv F
 -0.250000 -0.375000 -0.375000    0.00195312  52 t-inv F
  0.375000  0.250000  0.375000    0.00195312  52 t-inv F
 -0.375000 -0.250000 -0.375000    0.00195312  52 t-inv F
 -0.500000 -0.375000 -0.250000    0.00195312  53 t-inv F
  0.250000  0.500000  0.375000    0.00195312  53 t-inv F
 -0.250000 -0.500000 -0.375000    0.00195312  53 t-inv F
  0.375000  0.250000  0.500000    0.00195312  53 t-inv F
 -0.375000 -0.250000 -0.500000    0.00195312  53 t-inv F
 -0.500000 -0.250000 -0.375000    0.00195312  53 t-inv F
  0.500000  0.250000  0.375000    0.00195312  53 t-inv F
 -0.375000 -0.500000 -0.250000    0.00195312  53 t-inv F
  0.375000  0.500000  0.250000    0.00195312  53 t-inv F
 -0.250000 -0.375000 -0.500000    0.00195312  53 t-inv F
  0.250000  0.375000  0.500000    0.00195312  53 t-inv F
  0.375000 -0.375000 -0.250000    0.00195312  54 t-inv F
  0.250000 -0.375000  0.375000    0.00195312  54 t-inv F
 -0.250000  0.375000 -0.375000    0.00195312  54 t-inv F
  0.375000  0.250000 -0.375000    0.00195312  54 t-inv F
 -0.375000 -0.250000  0.375000    0.00195312  54 t-inv F
  0.375000 -0.250000 -0.375000    0.00195312  54 t-inv F
 -0.375000  0.250000  0.375000    0.00195312  54 t-inv F
 -0.375000  0.375000 -0.250000    0.00195312  54 t-inv F
  0.375000 -0.375000  0.250000    0.00195312  54 t-inv F
 -0.250000 -0.375000  0.375000    0.00195312  54 t-inv F
  0.250000  0.375000 -0.375000    0.00195312  54 t-inv F
  0.250000 -0.375000 -0.250000    0.00195312  55 t-inv F
  0.250000 -0.250000  0.375000    0.00195312  55 t-inv F
 -0.250000  0.250000 -0.375000    0.00195312  55 t-inv F
  0.375000  0.250000 -0.250000    0.00195312  55 t-inv F
 -0.375000 -0.250000  0.250000    0.00195312  55 t-inv F
  0.250000 -0.250000 -0.375000    0.00195312  55 t-inv F
 -0.250000  0.250000  0.375000    0.00195312  55 t-inv F
 -0.375000  0.250000 -0.250000    0.00195312  55 t-inv F
  0.375000 -0.250000  0.250000    0.00195312  55 t-inv F
 -0.250000 -0.375000  0.250000    0.00195312  55 t-inv F
  0.250000  0.375000 -0.250000    0.00195312  55 t-inv F
 -0.500000 -0.500000 -0.250000    0.00195312  56 t-inv F
  0.250000  0.500000  0.500000    0.00195312  56 t-inv F
 -0.250000 -0.500000 -0.500000    0.00195312  56 t-inv F
  0.500000  0.250000  0.500000    0.00195312  56 t-inv F
 -0.500000 -0.250000 -0.500000    0.00195312  56 t-inv F
  0.375000 -0.500000 -0.250000    0.00195312  57 t-inv F
  0.250000 -0.375000  0.500000    0.00195312  57 t-inv F
 -0.250000  0.375000 -0.500000    0.00195312  57 t-inv F
  0.500000  0.250000 -0.375000    0.00195312  57 t-inv F
 -0.500000 -0.250000  0.375000    0.00195312  57 t-inv F
  0.375000 -0.250000 -0.500000    0.00195312  57 t-inv F
 -0.375000  0.250000  0.500000    0.00195312  57 t-inv F
 -0.500000  0.375000 -0.250000    0.00195312  57 t-inv F
  0.500000 -0.375000  0.250000    0.00195312  57 t-inv F
 -0.250000 -0.500000  0.375000    0.00195312  57 t-inv F
  0.250000  0.500000 -0.375000    0.00195312  57 t-inv F
  0.250000 -0.500000 -0.250000    0.00195312  58 t-inv F
  0.250000 -0.250000  0.500000    0.00195312  58 t-inv F
 -0.250000  0.250000 -0.500000    0.00195312  58 t-inv F
  0.500000  0.250000 -0.250000    0.00195312  58 t-inv F
 -0.500000 -0.250000  0.250000    0.00195312  58 t-inv F
  0.375000  0.375000 -0.250000    0.00195312  59 t-inv F
  0.250000 -0.375000 -0.375000    0.00195312  59 t-inv F
 -0.250000  0.375000  0.375000    0.00195312  59 t-inv F
 -0.375000  0.250000 -0.375000    0.00195312  59 t-inv F
  0.375000 -0.250000  0.375000    0.00195312  59 t-inv F
 -0.375000 -0.375000 -0.375000    0.00195312  60 t-inv F
 -0.500000 -0.375000 -0.375000    0.00195312  61 t-inv F
  0.375000  0.500000  0.375000    0.00195312  61 t-inv F
 -0.375000 -0.500000 -0.375000    0.00195312  61 t-inv F
  0.375000  0.375000  0.500000    0.00195312  61 t-inv F
 -0.375000 -0.375000 -0.500000    0.00195312  61 t-inv F
  0.375000 -0.375000 -0.375000    0.00195312  62 t-inv F
  0.375000 -0.375000  0.375000    0.00195312  62 t-inv F
 -0.375000  0.375000 -0.375000    0.00195312  62 t-inv F
  0.375000  0.375000 -0.375000    0.00195312  62 t-inv F
 -0.375000 -0.375000  0.375000    0.00195312  62 t-inv F
 -0.500000 -0.500000 -0.375000    0.00195312  63 t-inv F
  0.375000  0.500000  0.500000    0.00195312  63 t-inv F
 -0.375000 -0.500000 -0.500000    0.00195312  63 t-inv F
  0.500000  0.375000  0.500000    0.00195312  63 t-inv F
 -0.500000 -0.375000 -0.500000    0.00195312  63 t-inv F
  0.375000 -0.500000 -0.375000    0.00195312  64 t-inv F
  0.375000 -0.375000  0.500000    0.00195312  64 t-inv F
 -0.375000  0.375000 -0.500000    0.00195312  64 t-inv F
  0.500000  0.375000 -0.375000    0.00195312  64 t-inv F
 -0.500000 -0.375000  0.375000    0.00195312  64 t-inv F


--------------------------------------------------------------------------------------------------------




 Dimension of arrays:
   k-points           NKPTS =     65   k-points in BZ     NKDIM =     65   number of bands    NBANDS=     46
   number of dos      NEDOS =    301   number of ions     NIONS =     10
   non local maximal  LDIM  =      8   non local SUM 2l+1 LMDIM =     32
   total plane-waves  NPLWV =  74088
   max r-space proj   IRMAX =      1   max aug-charges    IRDMAX=  36627
   dimension x,y,z NGX =    42 NGY =   42 NGZ =   42
   dimension x,y,z NGXF=    84 NGYF=   84 NGZF=   84
   support grid    NGXF=    84 NGYF=   84 NGZF=   84
   ions per type =               2   2   6
   NGX,Y,Z   is equivalent  to a cutoff of  13.23, 13.23, 13.23 a.u.
   NGXF,Y,Z  is equivalent  to a cutoff of  26.45, 26.45, 26.45 a.u.

 SYSTEM =  LaNiO3                                  
 POSCAR =  La Ni O                                 

 Startparameter for this run:
   NWRITE =      2    write-flag & timer
   PREC   = accura    normal or accurate (medium, high low for compatibility)
   ISTART =      1    job   : 0-new  1-cont  2-samecut
   ICHARG =      0    charge: 1-file 2-atom 10-const
   ISPIN  =      1    spin polarized calculation?
   LNONCOLLINEAR =      F non collinear calculations
   LSORBIT =      F    spin-orbit coupling
   INIWAV =      1    electr: 0-lowe 1-rand  2-diag
   LASPH  =      F    aspherical Exc in radial PAW
   METAGGA=      F    non-selfconsistent MetaGGA calc.

 Electronic Relaxation 1
   ENCUT  =  600.0 eV  44.10 Ry    6.64 a.u.  10.54 10.54 10.54*2*pi/ulx,y,z
   ENINI  =  600.0     initial cutoff
   ENAUG  =  605.4 eV  augmentation charge cutoff
   NELM   =     60;   NELMIN=  2; NELMDL=  0     # of ELM steps 
   EDIFF  = 0.1E-03   stopping-criterion for ELM
   LREAL  =      F    real-space projection
   NLSPLINE    = F    spline interpolate recip. space projectors
   LCOMPAT=      F    compatible to vasp.4.4
   GGA_COMPAT  = T    GGA compatible to vasp.4.4-vasp.4.6
   LMAXPAW     = -100 max onsite density
   LMAXMIX     =    2 max onsite mixed and CHGCAR
   VOSKOWN=      0    Vosko Wilk Nusair interpolation
   ROPT   =    0.00000   0.00000   0.00000
 Ionic relaxation
   EDIFFG = 0.1E-02   stopping-criterion for IOM
   NSW    =      0    number of steps for IOM
   NBLOCK =      1;   KBLOCK =      1    inner block; outer block 
   IBRION =     -1    ionic relax: 0-MD 1-quasi-New 2-CG
   NFREE  =      0    steps in history (QN), initial steepest desc. (CG)
   ISIF   =      2    stress and relaxation
   IWAVPR =     10    prediction:  0-non 1-charg 2-wave 3-comb
   ISYM   =      2    0-nonsym 1-usesym 2-fastsym
   LCORR  =      T    Harris-Foulkes like correction to forces

   POTIM  = 0.5000    time-step for ionic-motion
   TEIN   =    0.0    initial temperature
   TEBEG  =    0.0;   TEEND  =   0.0 temperature during run
   SMASS  =  -3.00    Nose mass-parameter (am)
   estimated Nose-frequenzy (Omega)   =  0.10E-29 period in steps =****** mass=  -0.637E-27a.u.
   SCALEE = 1.0000    scale energy and forces
   NPACO  =    256;   APACO  = 16.0  distance and # of slots for P.C.
   PSTRESS=    0.0 pullay stress

  Mass of Ions in am
   POMASS = 138.90 58.69 16.00
  Ionic Valenz
   ZVAL   =  11.00 10.00  6.00
  Atomic Wigner-Seitz radii
   RWIGS  =  -1.00 -1.00 -1.00
  virtual crystal weights 
   VCA    =   1.00  1.00  1.00
   NELECT =      78.0000    total number of electrons
   NUPDOWN=      -1.0000    fix difference up-down

 DOS related values:
   EMIN   =  10.00;   EMAX   =-10.00  energy-range for DOS
   EFERMI =   0.00
   ISMEAR =     0;   SIGMA  =   0.05  broadening in eV -4-tet -1-fermi 0-gaus

 Electronic relaxation 2 (details)
   IALGO  =     38    algorithm
   LDIAG  =      T    sub-space diagonalisation (order eigenvalues)
   LSUBROT=      F    optimize rotation matrix (better conditioning)
   TURBO    =      0    0=normal 1=particle mesh
   IRESTART =      0    0=no restart 2=restart with 2 vectors
   NREBOOT  =      0    no. of reboots
   NMIN     =      0    reboot dimension
   EREF     =   0.00    reference energy to select bands
   IMIX   =      4    mixing-type and parameters
     AMIX     =   0.40;   BMIX     =  1.00
     AMIX_MAG =   1.60;   BMIX_MAG =  1.00
     AMIN     =   0.10
     WC   =   100.;   INIMIX=   1;  MIXPRE=   1;  MAXMIX= -45

 Intra band minimization:
   WEIMIN = 0.0000     energy-eigenvalue tresh-hold
   EBREAK =  0.54E-06  absolut break condition
   DEPER  =   0.30     relativ break condition  

   TIME   =   0.40     timestep for ELM

  volume/ion in A,a.u.               =      10.63        71.71
  Fermi-wavevector in a.u.,A,eV,Ry     =   1.476764  2.790679 29.672007  2.180831
  Thomas-Fermi vector in A             =   2.591250
 
 Write flags
   LWAVE        =      T    write WAVECAR
   LDOWNSAMPLE  =      F    k-point downsampling of WAVECAR
   LCHARG       =      T    write CHGCAR
   LVTOT        =      F    write LOCPOT, total local potential
   LVHAR        =      F    write LOCPOT, Hartree potential only
   LELF         =      F    write electronic localiz. function (ELF)
   LORBIT       =      0    0 simple, 1 ext, 2 COOP (PROOUT), +10 PAW based schemes


 Dipole corrections
   LMONO  =      F    monopole corrections only (constant potential shift)
   LDIPOL =      F    correct potential (dipole corrections)
   IDIPOL =      0    1-x, 2-y, 3-z, 4-all directions 
   EPSILON=  1.0000000 bulk dielectric constant

 Exchange correlation treatment:
   GGA     =    --    GGA type
   LEXCH   =     2    internal setting for exchange type
   VOSKOWN=      0    Vosko Wilk Nusair interpolation
   LHFCALC =     F    Hartree Fock is set to
   LHFONE  =     F    Hartree Fock one center treatment
   AEXX    =    0.0000 exact exchange contribution

 Linear response parameters
   LEPSILON=     F    determine dielectric tensor
   LRPA    =     F    only Hartree local field effects (RPA)
   LNABLA  =     F    use nabla operator in PAW spheres
   LVEL    =     F    velocity operator in full k-point grid
   LINTERFAST=   F  fast interpolation
   KINTER  =     0    interpolate to denser k-point grid
   CSHIFT  =0.1000    complex shift for real part using Kramers Kronig
   OMEGAMAX=  -1.0    maximum frequency
   DEG_THRESHOLD= 0.2000000E-02 threshold for treating states as degnerate
   RTIME   =   -0.100 relaxation time in fs
  (WPLASMAI=    0.000 imaginary part of plasma frequency in eV, 0.658/RTIME)
   DFIELD  = 0.0000000 0.0000000 0.0000000 field for delta impulse in time
 
 Orbital magnetization related:
   ORBITALMAG=     F  switch on orbital magnetization
   LCHIMAG   =     F  perturbation theory with respect to B field
   DQ        =  0.001000  dq finite difference perturbation B field
   LLRAUG    =     F  two centre corrections for induced B field



--------------------------------------------------------------------------------------------------------


 Static calculation
 charge density and potential will be updated during run
 non-spin polarized calculation
 Variant of blocked Davidson
 Davidson routine will perform the subspace rotation
 perform sub-space diagonalisation
    after iterative eigenvector-optimisation
 modified Broyden-mixing scheme, WC =      100.0
 initial mixing is a Kerker type mixing with AMIX =  0.4000 and BMIX =      1.0000
 Hartree-type preconditioning will be used
 using additional bands            7
 reciprocal scheme for non local part
 use partial core corrections
 calculate Harris-corrections to forces 
   (improved forces if not selfconsistent)
 use of overlap-Matrix (Vanderbilt PP)
 Gauss-broadening in eV      SIGMA  =   0.05


--------------------------------------------------------------------------------------------------------


  energy-cutoff  :      600.00
  volume of cell :      106.26
      direct lattice vectors                 reciprocal lattice vectors
     1.545704410 -2.677238570  4.279778740     0.107825705 -0.186759598  0.077885646
     1.545704410  2.677238570  4.279778740     0.107825705  0.186759598  0.077885646
    -3.091408810  0.000000000  4.279778740    -0.215651409  0.000000000  0.077885647

  length of vectors
     5.279518401  5.279518401  5.279518396     0.229285202  0.229285202  0.229285203


 
 old parameters found on file WAVECAR:
  energy-cutoff  :      600.00
  volume of cell :      106.26
      direct lattice vectors                 reciprocal lattice vectors
     1.545704410 -2.677238570  4.279778740     0.107825705 -0.186759598  0.077885646
     1.545704410  2.677238570  4.279778740     0.107825705  0.186759598  0.077885646
    -3.091408810  0.000000000  4.279778740    -0.215651409  0.000000000  0.077885647

  length of vectors

 
 k-points in units of 2pi/SCALE and weight: coord.13.02                             
   0.00000000  0.00000000  0.00000000       0.002
   0.01347821 -0.02334495  0.00973571       0.012
   0.02695643 -0.04668990  0.01947141       0.012
   0.04043464 -0.07003485  0.02920712       0.012
   0.05391285 -0.09337980  0.03894282       0.006
   0.02695643  0.00000000  0.01947141       0.012
   0.04043464 -0.02334495  0.02920712       0.023
   0.05391285 -0.04668990  0.03894282       0.023
   0.06739107 -0.07003485  0.04867853       0.023
  -0.02695643  0.09337980 -0.01947141       0.023
  -0.01347821  0.07003485 -0.00973571       0.023
   0.00000000  0.04668990  0.00000000       0.012
   0.05391285  0.00000000  0.03894282       0.012
   0.06739107 -0.02334495  0.04867853       0.023
   0.08086928 -0.04668990  0.05841423       0.023
  -0.01347821  0.11672475 -0.00973571       0.023
   0.00000000  0.09337980  0.00000000       0.012
   0.08086928  0.00000000  0.05841423       0.012
   0.09434749 -0.02334495  0.06814994       0.023
   0.00000000  0.14006970  0.00000000       0.012
   0.10782570  0.00000000  0.07788565       0.006
   0.00000000  0.00000000  0.02920712       0.004
   0.01347821 -0.02334495  0.03894282       0.012
   0.02695643 -0.04668990  0.04867853       0.012
   0.04043464 -0.07003485  0.05841423       0.012
  -0.05391285  0.09337980 -0.00973571       0.012
  -0.04043464  0.07003485  0.00000000       0.012
  -0.02695643  0.04668990  0.00973571       0.012
   0.02695643  0.00000000  0.04867853       0.012
   0.04043464 -0.02334495  0.05841423       0.023
   0.05391285 -0.04668990  0.06814994       0.023
  -0.04043464  0.11672475  0.00000000       0.023
  -0.02695643  0.09337980  0.00973571       0.023
  -0.01347821  0.07003485  0.01947141       0.023
   0.05391285  0.00000000  0.06814994       0.012
   0.06739107 -0.02334495  0.07788565       0.023
  -0.02695643  0.14006970  0.00973571       0.023
  -0.01347821  0.11672475  0.01947141       0.023
   0.00000000  0.09337980  0.02920712       0.023
   0.08086928  0.00000000  0.08762135       0.012
  -0.01347821  0.16341465  0.01947141       0.023
   0.00000000  0.14006970  0.02920712       0.023
   0.01347821  0.11672475  0.03894282       0.012
  -0.10782570  0.00000000 -0.04867853       0.012
  -0.09434749 -0.02334495 -0.03894282       0.023
  -0.08086928  0.00000000 -0.02920712       0.012
   0.00000000  0.00000000  0.05841423       0.004
   0.01347821 -0.02334495  0.06814994       0.012
   0.02695643 -0.04668990  0.07788565       0.012
  -0.06739107  0.11672475  0.00973571       0.012
  -0.05391285  0.09337980  0.01947141       0.012
   0.02695643  0.00000000  0.07788565       0.012
   0.04043464 -0.02334495  0.08762135       0.023
  -0.05391285  0.14006970  0.01947141       0.023
  -0.04043464  0.11672475  0.02920712       0.023
   0.05391285  0.00000000  0.09735706       0.012
  -0.04043464  0.16341465  0.02920712       0.023
  -0.02695643  0.14006970  0.03894282       0.012
  -0.13478213  0.00000000 -0.03894282       0.012
   0.00000000  0.00000000  0.08762135       0.004
   0.01347821 -0.02334495  0.09735706       0.012
  -0.08086928  0.14006970  0.02920712       0.012
   0.02695643  0.00000000  0.10709276       0.012
  -0.06739107  0.16341465  0.03894282       0.012
   0.00000000  0.00000000  0.11682847       0.002
 
 k-points in reciprocal lattice and weights: coord.13.02                             
   0.00000000  0.00000000  0.00000000       0.002
   0.12500000  0.00000000  0.00000000       0.012
   0.25000000  0.00000000  0.00000000       0.012
   0.37500000  0.00000000  0.00000000       0.012
   0.50000000  0.00000000  0.00000000       0.006
   0.12500000  0.12500000  0.00000000       0.012
   0.25000000  0.12500000  0.00000000       0.023
   0.37500000  0.12500000  0.00000000       0.023
   0.50000000  0.12500000  0.00000000       0.023
  -0.37500000  0.12500000 -0.00000000       0.023
  -0.25000000  0.12500000  0.00000000       0.023
  -0.12500000  0.12500000  0.00000000       0.012
   0.25000000  0.25000000  0.00000000       0.012
   0.37500000  0.25000000  0.00000000       0.023
   0.50000000  0.25000000  0.00000000       0.023
  -0.37500000  0.25000000 -0.00000000       0.023
  -0.25000000  0.25000000  0.00000000       0.012
   0.37500000  0.37500000  0.00000000       0.012
   0.50000000  0.37500000  0.00000000       0.023
  -0.37500000  0.37500000  0.00000000       0.012
   0.50000000  0.50000000  0.00000000       0.006
   0.12500000  0.12500000  0.12500000       0.004
   0.25000000  0.12500000  0.12500000       0.012
   0.37500000  0.12500000  0.12500000       0.012
   0.50000000  0.12500000  0.12500000       0.012
  -0.37500000  0.12500000  0.12500000       0.012
  -0.25000000  0.12500000  0.12500000       0.012
  -0.12500000  0.12500000  0.12500000       0.012
   0.25000000  0.25000000  0.12500000       0.012
   0.37500000  0.25000000  0.12500000       0.023
   0.50000000  0.25000000  0.12500000       0.023
  -0.37500000  0.25000000  0.12500000       0.023
  -0.25000000  0.25000000  0.12500000       0.023
  -0.12500000  0.25000000  0.12500000       0.023
   0.37500000  0.37500000  0.12500000       0.012
   0.50000000  0.37500000  0.12500000       0.023
  -0.37500000  0.37500000  0.12500000       0.023
  -0.25000000  0.37500000  0.12500000       0.023
  -0.12500000  0.37500000  0.12500000       0.023
   0.50000000  0.50000000  0.12500000       0.012
  -0.37500000  0.50000000  0.12500000       0.023
  -0.25000000  0.50000000  0.12500000       0.023
  -0.12500000  0.50000000  0.12500000       0.012
  -0.37500000 -0.37500000  0.12500000       0.012
  -0.25000000 -0.37500000  0.12500000       0.023
  -0.25000000 -0.25000000  0.12500000       0.012
   0.25000000  0.25000000  0.25000000       0.004
   0.37500000  0.25000000  0.25000000       0.012
   0.50000000  0.25000000  0.25000000       0.012
  -0.37500000  0.25000000  0.25000000       0.012
  -0.25000000  0.25000000  0.25000000       0.012
   0.37500000  0.37500000  0.25000000       0.012
   0.50000000  0.37500000  0.25000000       0.023
  -0.37500000  0.37500000  0.25000000       0.023
  -0.25000000  0.37500000  0.25000000       0.023
   0.50000000  0.50000000  0.25000000       0.012
  -0.37500000  0.50000000  0.25000000       0.023
  -0.25000000  0.50000000  0.25000000       0.012
  -0.37500000 -0.37500000  0.25000000       0.012
   0.37500000  0.37500000  0.37500000       0.004
   0.50000000  0.37500000  0.37500000       0.012
  -0.37500000  0.37500000  0.37500000       0.012
   0.50000000  0.50000000  0.37500000       0.012
  -0.37500000  0.50000000  0.37500000       0.012
   0.50000000  0.50000000  0.50000000       0.002
 
 position of ions in fractional coordinates (direct lattice) 
   0.25000000  0.25000000  0.25000000
   0.75000000  0.75000000  0.75000000
   0.00000000  0.00000000  0.00000000
   0.50000000  0.50000000  0.50000000
   0.70478152  0.79521848  0.25000000
   0.79521848  0.25000000  0.70478152
   0.25000000  0.70478152  0.79521848
   0.29521848  0.20478152  0.75000000
   0.20478152  0.75000000  0.29521848
   0.75000000  0.29521848  0.20478152
 
 position of ions in cartesian coordinates  (Angst):
   0.00000000  0.00000000  3.20983405
   0.00000001  0.00000000  9.62950216
   0.00000000  0.00000000  0.00000000
   0.00000000  0.00000000  6.41966811
   1.54570441  0.24212132  7.48961280
  -0.56316899 -1.45967994  7.48961280
  -0.98253541  1.21755863  7.48961280
  -1.54570440 -0.24212132  5.34972343
   0.56316900  1.45967994  5.34972343
   0.98253542 -1.21755863  5.34972343
 


--------------------------------------------------------------------------------------------------------


 k-point  1 :   0.0000 0.0000 0.0000  plane waves:    3575
 k-point  2 :   0.1250 0.0000 0.0000  plane waves:    3562
 k-point  3 :   0.2500 0.0000 0.0000  plane waves:    3563
 k-point  4 :   0.3750 0.0000 0.0000  plane waves:    3552
 k-point  5 :   0.5000 0.0000 0.0000  plane waves:    3550
 k-point  6 :   0.1250 0.1250 0.0000  plane waves:    3549
 k-point  7 :   0.2500 0.1250 0.0000  plane waves:    3562
 k-point  8 :   0.3750 0.1250 0.0000  plane waves:    3551
 k-point  9 :   0.5000 0.1250 0.0000  plane waves:    3547
 k-point 10 :  -0.3750 0.1250-0.0000  plane waves:    3553
 k-point 11 :  -0.2500 0.1250 0.0000  plane waves:    3550
 k-point 12 :  -0.1250 0.1250 0.0000  plane waves:    3565
 k-point 13 :   0.2500 0.2500 0.0000  plane waves:    3545
 k-point 14 :   0.3750 0.2500 0.0000  plane waves:    3544
 k-point 15 :   0.5000 0.2500 0.0000  plane waves:    3542
 k-point 16 :  -0.3750 0.2500-0.0000  plane waves:    3551
 k-point 17 :  -0.2500 0.2500 0.0000  plane waves:    3535
 k-point 18 :   0.3750 0.3750 0.0000  plane waves:    3534
 k-point 19 :   0.5000 0.3750 0.0000  plane waves:    3540
 k-point 20 :  -0.3750 0.3750 0.0000  plane waves:    3552
 k-point 21 :   0.5000 0.5000 0.0000  plane waves:    3520
 k-point 22 :   0.1250 0.1250 0.1250  plane waves:    3575
 k-point 23 :   0.2500 0.1250 0.1250  plane waves:    3549
 k-point 24 :   0.3750 0.1250 0.1250  plane waves:    3555
 k-point 25 :   0.5000 0.1250 0.1250  plane waves:    3559
 k-point 26 :  -0.3750 0.1250 0.1250  plane waves:    3558
 k-point 27 :  -0.2500 0.1250 0.1250  plane waves:    3550
 k-point 28 :  -0.1250 0.1250 0.1250  plane waves:    3553
 k-point 29 :   0.2500 0.2500 0.1250  plane waves:    3560
 k-point 30 :   0.3750 0.2500 0.1250  plane waves:    3548
 k-point 31 :   0.5000 0.2500 0.1250  plane waves:    3547
 k-point 32 :  -0.3750 0.2500 0.1250  plane waves:    3558
 k-point 33 :  -0.2500 0.2500 0.1250  plane waves:    3546
 k-point 34 :  -0.1250 0.2500 0.1250  plane waves:    3552
 k-point 35 :   0.3750 0.3750 0.1250  plane waves:    3537
 k-point 36 :   0.5000 0.3750 0.1250  plane waves:    3536
 k-point 37 :  -0.3750 0.3750 0.1250  plane waves:    3549
 k-point 38 :  -0.2500 0.3750 0.1250  plane waves:    3553
 k-point 39 :  -0.1250 0.3750 0.1250  plane waves:    3547
 k-point 40 :   0.5000 0.5000 0.1250  plane waves:    3529
 k-point 41 :  -0.3750 0.5000 0.1250  plane waves:    3534
 k-point 42 :  -0.2500 0.5000 0.1250  plane waves:    3543
 k-point 43 :  -0.1250 0.5000 0.1250  plane waves:    3548
 k-point 44 :  -0.3750-0.3750 0.1250  plane waves:    3520
 k-point 45 :  -0.2500-0.3750 0.1250  plane waves:    3546
 k-point 46 :  -0.2500-0.2500 0.1250  plane waves:    3543
 k-point 47 :   0.2500 0.2500 0.2500  plane waves:    3554
 k-point 48 :   0.3750 0.2500 0.2500  plane waves:    3558
 k-point 49 :   0.5000 0.2500 0.2500  plane waves:    3548
 k-point 50 :  -0.3750 0.2500 0.2500  plane waves:    3555
 k-point 51 :  -0.2500 0.2500 0.2500  plane waves:    3553
 k-point 52 :   0.3750 0.3750 0.2500  plane waves:    3544
 k-point 53 :   0.5000 0.3750 0.2500  plane waves:    3542
 k-point 54 :  -0.3750 0.3750 0.2500  plane waves:    3544
 k-point 55 :  -0.2500 0.3750 0.2500  plane waves:    3539
 k-point 56 :   0.5000 0.5000 0.2500  plane waves:    3538
 k-point 57 :  -0.3750 0.5000 0.2500  plane waves:    3531
 k-point 58 :  -0.2500 0.5000 0.2500  plane waves:    3542
 k-point 59 :  -0.3750-0.3750 0.2500  plane waves:    3534
 k-point 60 :   0.3750 0.3750 0.3750  plane waves:    3557
 k-point 61 :   0.5000 0.3750 0.3750  plane waves:    3535
 k-point 62 :  -0.3750 0.3750 0.3750  plane waves:    3536
 k-point 63 :   0.5000 0.5000 0.3750  plane waves:    3539
 k-point 64 :  -0.3750 0.5000 0.3750  plane waves:    3546
 k-point 65 :   0.5000 0.5000 0.5000  plane waves:    3546

 maximum and minimum number of plane-waves per node :      3575     3520

 maximum number of plane-waves:      3575
 maximum index in each direction: 
   IXMAX=   10   IYMAX=   10   IZMAX=   10
   IXMIN=  -11   IYMIN=  -11   IZMIN=  -11


 serial   3D FFT for wavefunctions
 parallel 3D FFT for charge:
    minimum data exchange during FFTs selected (reduces bandwidth)


 total amount of memory used by VASP MPI-rank0   449893. kBytes
=======================================================================

   base      :      30000. kBytes
   nonl-proj :     179036. kBytes
   fftplans  :      20656. kBytes
   grid      :      41602. kBytes
   one-center:        491. kBytes
   wavefun   :     178108. kBytes
 
     INWAV:  cpu time    0.6220: real time    2.1582
 Broyden mixing: mesh for mixing (old mesh)
   NGX = 21   NGY = 21   NGZ = 21
  (NGX  = 84   NGY  = 84   NGZ  = 84)
  gives a total of   9261 points

 charge density for first step will be calculated from the start-wavefunctions


--------------------------------------------------------------------------------------------------------


 Maximum index for augmentation-charges        35343 (set IRDMAX)


--------------------------------------------------------------------------------------------------------


 initial charge from wavefunction
 First call to EWALD:  gamma=   0.374
 Maximum number of real-space cells 3x 3x 3
 Maximum number of reciprocal cells 3x 3x 3

    FEWALD:  cpu time    0.0060: real time    0.0431


--------------------------------------- Iteration      1(   1)  ---------------------------------------


    POTLOK:  cpu time    0.1480: real time    0.2626
    SETDIJ:  cpu time    0.0880: real time    0.1085
     EDDAV:  cpu time    0.6760: real time    0.7299
       DOS:  cpu time    0.0100: real time    0.0738
    CHARGE:  cpu time    0.1960: real time    0.1992
    MIXING:  cpu time    0.0180: real time    0.0184
    --------------------------------------------
      LOOP:  cpu time    1.1360: real time    1.3924

 eigenvalue-minimisations  :  2990
 total energy-change (2. order) :-0.8156879E+02  (-0.4384074E-05)
 number of electron      77.9999993 magnetization 
 augmentation part       12.8132516 magnetization 

 Broyden mixing:
  rms(total) = 0.32501E-02    rms(broyden)= 0.32499E-02
  rms(prec ) = 0.73381E-02
  weight for this iteration     100.00

 Free energy of the ion-electron system (eV)
  ---------------------------------------------------
  alpha Z        PSCENC =       419.46422067
  Ewald energy   TEWEN  =     -5763.28843345
  -Hartree energ DENC   =     -1302.95140517
  -exchange      EXHF   =         0.00000000
  -V(xc)+E(xc)   XCENC  =       301.55240350
  PAW double counting   =      4632.81479959    -4796.95175383
  entropy T*S    EENTRO =        -0.00471463
  eigenvalues    EBANDS =       -63.22682119
  atomic energy  EATOM  =      6491.02291218
  Solvation  Ediel_sol  =         0.00000000
  ---------------------------------------------------
  free energy    TOTEN  =       -81.56879234 eV

  energy without entropy =      -81.56407771  energy(sigma->0) =      -81.56643502


--------------------------------------------------------------------------------------------------------




--------------------------------------- Iteration      1(   2)  ---------------------------------------


    POTLOK:  cpu time    0.1450: real time    0.1515
    SETDIJ:  cpu time    0.0960: real time    0.0956
     EDDAV:  cpu time    0.7750: real time    0.7783
       DOS:  cpu time    0.0010: real time    0.0006
    --------------------------------------------
      LOOP:  cpu time    1.0170: real time    1.0260

 eigenvalue-minimisations  :  3838
 total energy-change (2. order) :-0.1296980E-04  (-0.1822592E-04)
 number of electron      77.9999993 magnetization 
 augmentation part       12.8132516 magnetization 

 Free energy of the ion-electron system (eV)
  ---------------------------------------------------
  alpha Z        PSCENC =       419.46422067
  Ewald energy   TEWEN  =     -5763.28843345
  -Hartree energ DENC   =     -1303.04576506
  -exchange      EXHF   =         0.00000000
  -V(xc)+E(xc)   XCENC  =       301.55409858
  PAW double counting   =      4633.00308737    -4797.18192125
  entropy T*S    EENTRO =        -0.00472169
  eigenvalues    EBANDS =       -63.09228265
  atomic energy  EATOM  =      6491.02291218
  Solvation  Ediel_sol  =         0.00000000
  ---------------------------------------------------
  free energy    TOTEN  =       -81.56880531 eV

  energy without entropy =      -81.56408362  energy(sigma->0) =      -81.56644446


--------------------------------------------------------------------------------------------------------




 average (electrostatic) potential at core
  the test charge radii are     1.1480  0.9791  0.7215
  (the norm of the test charge is              1.0000)
       1 -94.2875       2 -94.2875       3 -40.6978       4 -40.6978       5 -68.0915
       6 -68.0915       7 -68.0915       8 -68.0915       9 -68.0915      10 -68.0915
 
 
 
 E-fermi :   7.7029     XC(G=0): -12.7060     alpha+bet :-17.2778


 k-point     1 :       0.0000    0.0000    0.0000
  band No.  band energies     occupation 
      1     -23.0233      2.00000
[...]
      8      -9.6185      2.00000
      9      -6.6142      2.00000
     10      -6.4017      2.00000
     11      -6.1643      2.00000
     12      -6.0409      2.00000
     13      -5.9251      2.00000
     14      -5.8351      2.00000
     15       1.1547      2.00000
     16       1.2659      2.00000
     17       2.1549      2.00000
     18       2.3519      2.00000
     19       2.3985      2.00000
     20       2.4629      2.00000
     21       2.6608      2.00000
     22       2.7759      2.00000
     23       3.3448      2.00000
     24       3.4192      2.00000
     25       3.8923      2.00000
     26       4.2003      2.00000
     27       4.6035      2.00000
     28       5.0161      2.00000
     29       5.2196      2.00000
     30       5.3394      2.00000
     31       5.3996      2.00000
     32       5.9769      2.00000
     33       6.6561      2.00000
     34       6.8030      2.00000
     35       6.8372      2.00000
     36       6.8567      2.00000
     37       7.0558      2.00000
     38       7.0749      2.00000
     39       7.6411      1.91906
     40       8.0337      0.00000
     41       9.3188      0.00000
     42       9.3909      0.00000
     43      11.5798      0.00000
     44      11.5987      0.00000
     45      11.6434      0.00000
     46      11.7372      0.00000

 k-point    63 :       0.5000    0.5000    0.3750
  band No.  band energies     occupation 
      1     -22.8778      2.00000
      2     -22.8394      2.00000
      3     -11.1473      2.00000
      4     -10.9660      2.00000
      5     -10.2947      2.00000
      6     -10.1413      2.00000
      7      -9.8788      2.00000
      8      -9.8014      2.00000
      9      -6.5508      2.00000
     10      -6.4810      2.00000
     11      -6.2752      2.00000
     12      -6.2062      2.00000
     13      -5.9042      2.00000
     14      -5.8355      2.00000
     15       1.1728      2.00000
     16       1.4083      2.00000
     17       2.1590      2.00000
     18       2.3394      2.00000
     19       2.3705      2.00000
     20       2.4479      2.00000
     21       2.8370      2.00000
     22       3.1618      2.00000
     23       3.3617      2.00000
     24       3.4187      2.00000
     25       3.5544      2.00000
     26       3.8289      2.00000
     27       5.0049      2.00000
     28       5.1356      2.00000
     29       5.3741      2.00000
     30       5.3836      2.00000
     31       5.4732      2.00000
     32       5.7335      2.00000
     33       6.6827      2.00000
     34       6.8194      2.00000
     35       6.8280      2.00000
     36       6.9896      2.00000
     37       6.9928      2.00000
     38       7.0026      2.00000
     39       8.0718      0.00000
     40       8.4053      0.00000
     41       8.8788      0.00000
     42       9.3699      0.00000
     43      11.6067      0.00000
     44      11.6332      0.00000
     45      11.6450      0.00000
     46      11.6751      0.00000

 k-point    64 :      -0.3750    0.5000    0.3750
  band No.  band energies     occupation 
      1     -22.8570      2.00000
      2     -22.8570      2.00000
      3     -11.1653      2.00000
      4     -11.1653      2.00000
      5     -10.2698      2.00000
      6     -10.2698      2.00000
      7      -9.7085      2.00000
      8      -9.7085      2.00000
      9      -6.5065      2.00000
     10      -6.5065      2.00000
     11      -6.1318      2.00000
     12      -6.1318      2.00000
     13      -5.8577      2.00000
     14      -5.8577      2.00000
     15       1.2276      2.00000
     16       1.2276      2.00000
     17       2.2110      2.00000
     18       2.2110      2.00000
     19       2.4523      2.00000
     20       2.4523      2.00000
     21       2.7778      2.00000
     22       2.7778      2.00000
     23       3.4052      2.00000
     24       3.4052      2.00000
     25       3.9342      2.00000
     26       3.9342      2.00000
     27       4.8310      2.00000
     28       4.8310      2.00000
     29       5.2601      2.00000
     30       5.2601      2.00000
     31       5.7176      2.00000
     32       5.7176      2.00000
     33       6.7134      2.00000
     34       6.7134      2.00000
     35       6.9024      2.00000
     36       6.9024      2.00000
     37       7.0664      2.00000
     38       7.0664      2.00000
     39       7.8778      0.00000
     40       7.8778      0.00000
     41       9.3270      0.00000
     42       9.3270      0.00000
     43      11.5960      0.00000
     44      11.5960      0.00000
     45      11.6834      0.00000
     46      11.6834      0.00000

 k-point    65 :       0.5000    0.5000    0.5000
  band No.  band energies     occupation 
      1     -22.8593      2.00000
      2     -22.8593      2.00000
      3     -11.0074      2.00000
      4     -11.0074      2.00000
      5     -10.0552      2.00000
      6     -10.0552      2.00000
      7     -10.0552      2.00000
      8     -10.0552      2.00000
      9      -6.4100      2.00000
     10      -6.4100      2.00000
     11      -6.4100      2.00000
     12      -6.4100      2.00000
     13      -5.8395      2.00000
     14      -5.8395      2.00000
     15       1.3254      2.00000
     16       1.3254      2.00000
     17       2.3253      2.00000
     18       2.3253      2.00000
     19       2.3253      2.00000
     20       2.3253      2.00000
     21       3.1714      2.00000
     22       3.1714      2.00000
     23       3.4137      2.00000
     24       3.4137      2.00000
     25       3.4137      2.00000
     26       3.4137      2.00000
     27       5.3494      2.00000
     28       5.3494      2.00000
     29       5.3494      2.00000
     30       5.3494      2.00000
     31       5.5078      2.00000
     32       5.5078      2.00000
     33       6.8135      2.00000
     34       6.8135      2.00000
     35       6.9040      2.00000
     36       6.9040      2.00000
     37       6.9040      2.00000
     38       6.9040      2.00000
     39       8.7311      0.00000
     40       8.7311      0.00000
     41       8.7311      0.00000
     42       8.7311      0.00000
     43      11.6487      0.00000
     44      11.6487      0.00000
     45      11.6487      0.00000
     46      11.6487      0.00000


--------------------------------------------------------------------------------------------------------


 soft charge-density along one line, spin component           1
         0         1         2         3         4         5         6         7         8         9
 total charge-density along one line
 
 pseudopotential strength for first ion, spin component:           1
 50.906  -3.883   0.000   0.000  -0.000   0.000   0.000  -0.000
 -3.883  -4.654  -0.000  -0.000   0.000   0.000   0.000  -0.000
  0.000  -0.000  18.014  -0.000   0.000   0.692  -0.000   0.000
  0.000  -0.000  -0.000  18.013  -0.000  -0.000   0.693  -0.000
 -0.000   0.000   0.000  -0.000  18.014   0.000  -0.000   0.692
  0.000   0.000   0.692  -0.000   0.000   6.778  -0.000   0.000
  0.000   0.000  -0.000   0.693  -0.000  -0.000   6.778  -0.000
 -0.000  -0.000   0.000  -0.000   0.692   0.000  -0.000   6.778
  0.000  -0.000  -0.000   0.000  -0.003  -0.000   0.000  -0.001
 -0.000   0.000   0.000   0.000   0.000   0.000   0.000   0.000
 -0.001  -0.001  -0.000   0.000   0.000  -0.000   0.000   0.000
 -0.000   0.000   0.000  -0.000   0.000   0.000  -0.000   0.000
  0.000  -0.000  -0.003  -0.000  -0.000  -0.001  -0.000  -0.000
 -0.000  -0.000   0.000  -0.000  -0.000   0.000  -0.000   0.000
  0.000   0.000  -0.000  -0.000  -0.000  -0.000  -0.000  -0.000
 -0.000  -0.000   0.000  -0.000  -0.000   0.000  -0.000  -0.000
  0.000   0.000  -0.000   0.000  -0.000  -0.000   0.000  -0.000
 -0.000  -0.000  -0.000   0.000   0.000   0.000   0.000   0.000
 -0.005  -0.001  -0.000  -0.000  -0.000   0.000  -0.000   0.000
 -0.000  -0.000   0.002  -0.000   0.000   0.000   0.000  -0.000
  0.000   0.000  -0.002   0.000   0.000  -0.000  -0.000  -0.000
  0.000   0.000  -0.000  -0.001  -0.000   0.000  -0.000   0.000
  0.000   0.000   0.000   0.000  -0.002  -0.000  -0.000  -0.000
  0.000   0.000  -0.000  -0.000  -0.002   0.000   0.000  -0.000
  0.000   0.000   0.000  -0.001  -0.000  -0.000  -0.000   0.000
  0.003   0.001   0.000   0.000   0.000  -0.000   0.000   0.000
  0.000   0.000  -0.001   0.000  -0.000  -0.000  -0.000  -0.000
 -0.000  -0.000   0.001  -0.000  -0.000   0.000   0.000  -0.000
 -0.000  -0.000   0.000   0.001   0.000   0.000   0.000  -0.000
 -0.000  -0.000  -0.000  -0.000   0.001  -0.000   0.000   0.000
 -0.000  -0.000   0.000   0.000   0.001   0.000  -0.000   0.000
 -0.000  -0.000  -0.000   0.001   0.000  -0.000   0.000  -0.000
 total augmentation occupancy for first ion, spin component:           1
  2.292  -0.510   0.000   0.000   0.000  -0.000   0.000  -0.000   0.000   0.000   0.025   0.000   0.000   0.000  -0.000  -0.028
 -0.510   0.905   0.000   0.000  -0.000   0.000   0.000  -0.000   0.000   0.000  -0.037  -0.000  -0.000  -0.000  -0.000   0.051
 -0.000   0.000   2.048   0.000   0.000  -0.021   0.000   0.000   0.000   0.000  -0.000  -0.002  -0.062   0.000   0.000   0.000
  0.000   0.000   0.000   2.043   0.000  -0.000  -0.016  -0.000  -0.000  -0.000   0.000   0.000   0.000   0.000   0.000  -0.000
 -0.000   0.000   0.000   0.000   2.048   0.000  -0.000  -0.021  -0.062   0.002   0.000  -0.000   0.000   0.060  -0.003   0.000
  0.000   0.000  -0.021   0.000  -0.000   0.023   0.000   0.000   0.000   0.000   0.000   0.001   0.025   0.000  -0.000  -0.000
 -0.000  -0.000   0.000  -0.016  -0.000   0.000   0.020   0.000   0.000   0.000  -0.000   0.000   0.000  -0.000   0.000   0.000
  0.000   0.000   0.000  -0.000  -0.021   0.000   0.000   0.023   0.025  -0.001  -0.000   0.000   0.000  -0.033   0.001   0.000
 -0.000   0.000   0.000  -0.000  -0.062   0.000   0.000   0.025   0.177   0.004   0.000   0.000   0.000  -0.233  -0.013   0.000
  0.000   0.000   0.000   0.000   0.002  -0.000  -0.000  -0.001   0.004   0.144  -0.000   0.000   0.000  -0.013  -0.186   0.000
  0.025  -0.037  -0.000   0.000   0.000   0.000   0.000   0.000  -0.000   0.000   0.163   0.000   0.000   0.000   0.000  -0.223
  0.000  -0.000  -0.002  -0.000  -0.000   0.001  -0.000   0.000   0.000   0.000   0.000   0.144  -0.004   0.000   0.000  -0.000
  0.000  -0.000  -0.062   0.000   0.000   0.025   0.000   0.000  -0.000  -0.000   0.000  -0.004   0.177   0.000  -0.000  -0.000
  0.000  -0.000   0.000  -0.000   0.060   0.000  -0.000  -0.033  -0.233  -0.013  -0.000   0.000   0.000   0.343   0.032   0.000
 -0.000   0.000  -0.000   0.000  -0.003   0.000   0.000   0.001  -0.013  -0.186  -0.000   0.000  -0.000   0.032   0.264   0.000
 -0.028   0.051   0.000   0.000   0.000  -0.000   0.000   0.000   0.000   0.000  -0.223  -0.000  -0.000   0.000   0.000   0.339
 -0.000   0.000   0.003   0.000   0.000  -0.001   0.000   0.000   0.000   0.000  -0.000  -0.186   0.013   0.000   0.000   0.000
 -0.000   0.000   0.060   0.000  -0.000  -0.033  -0.000   0.000   0.000   0.000  -0.000   0.013  -0.233   0.000   0.000   0.000
 -0.095   0.147  -0.000   0.000  -0.000   0.000  -0.000   0.000  -0.000   0.000  -0.079  -0.000  -0.000  -0.000   0.000   0.106
  0.000  -0.000  -0.018   0.000  -0.000   0.006   0.000   0.000   0.000   0.000   0.000  -0.011   0.000  -0.000   0.000  -0.000
 -0.000   0.000   0.016   0.000   0.000  -0.007   0.000  -0.000  -0.000  -0.000  -0.000  -0.003  -0.058   0.000   0.000   0.000
 -0.000  -0.000   0.000  -0.006   0.000  -0.000   0.002   0.000   0.000  -0.000   0.000   0.000  -0.000  -0.000   0.000   0.000
  0.000   0.000   0.000   0.000   0.016   0.000   0.000  -0.007  -0.058   0.003   0.000   0.000   0.000   0.077  -0.004   0.000
 -0.000   0.000   0.000  -0.000   0.018  -0.000   0.000  -0.006  -0.000  -0.011   0.000   0.000  -0.000  -0.000   0.013  -0.000
  0.000   0.000  -0.000   0.012   0.000   0.000  -0.004  -0.000  -0.000  -0.000  -0.000  -0.000   0.000   0.000   0.000  -0.000
 -0.076   0.118  -0.000  -0.000   0.000   0.000   0.000   0.000   0.000   0.000  -0.062  -0.000  -0.000   0.000   0.000   0.087
  0.000  -0.000  -0.014  -0.000  -0.000   0.005  -0.000   0.000   0.000  -0.000   0.000  -0.008  -0.000   0.000   0.000  -0.000
 -0.000   0.000   0.012  -0.000   0.000  -0.006   0.000   0.000  -0.000   0.000  -0.000  -0.002  -0.046  -0.000  -0.000   0.000
 -0.000   0.000   0.000  -0.005   0.000   0.000   0.002   0.000   0.000  -0.000   0.000   0.000  -0.000  -0.000   0.000   0.000
  0.000   0.000   0.000   0.000   0.012   0.000   0.000  -0.006  -0.046   0.002  -0.000  -0.000   0.000   0.063  -0.003   0.000
 -0.000  -0.000   0.000  -0.000   0.014   0.000   0.000  -0.005   0.000  -0.008  -0.000   0.000   0.000  -0.001   0.009  -0.000
  0.000  -0.000   0.000   0.010   0.000  -0.000  -0.004  -0.000  -0.000  -0.000   0.000   0.000  -0.000   0.000   0.000   0.000


------------------------ aborting loop because EDIFF is reached ----------------------------------------


    CHARGE:  cpu time    0.1970: real time    0.1971
    FORLOC:  cpu time    0.0500: real time    0.0504
    FORNL :  cpu time    0.7300: real time    0.7318
    STRESS:  cpu time    3.9300: real time    3.9535
    FORCOR:  cpu time    0.1130: real time    0.1128
    FORHAR:  cpu time    0.1260: real time    0.1267
    MIXING:  cpu time    0.0170: real time    0.0173
    OFIELD:  cpu time    0.0010: real time    0.0084

  FORCE on cell =-STRESS in cart. coord.  units (eV):
  Direction    XX          YY          ZZ          XY          YZ          ZX
  --------------------------------------------------------------------------------------
  Alpha Z   419.46422   419.46422   419.46422
  Ewald   -1900.80677 -1900.80677 -1961.68603    -0.00000     0.00000    -0.00000
  Hartree   442.90944   442.90944   416.80225     0.00000    -0.00000     0.00000
  E(xc)    -361.03995  -361.03995  -361.02296     0.00000    -0.00000    -0.00000
  Local     -68.97979   -68.97979    14.90517     0.00000    -0.00000    -0.00000
  n-local   113.89543   110.71307   114.18017     0.74540     1.09862    -0.14810
  augment    66.18544    66.18544    66.90895    -0.00000    -0.00000     0.00000
  Kinetic  1287.13897  1291.78777  1289.87448     1.66794     0.12696    -6.38320
  Fock        0.00000     0.00000     0.00000     0.00000     0.00000     0.00000
  -------------------------------------------------------------------------------------
  Total      -0.49978    -0.49978    -0.57375     0.00000     0.00000    -0.00000
  in kB      -7.53539    -7.53539    -8.65064     0.00000     0.00000    -0.00000
  external pressure =       -7.91 kB  Pullay stress =        0.00 kB


 VOLUME and BASIS-vectors are now :
 -----------------------------------------------------------------------------
  energy-cutoff  :      600.00
  volume of cell :      106.26
      direct lattice vectors                 reciprocal lattice vectors
     1.545704410 -2.677238570  4.279778740     0.107825705 -0.186759598  0.077885646
     1.545704410  2.677238570  4.279778740     0.107825705  0.186759598  0.077885646
    -3.091408810  0.000000000  4.279778740    -0.215651409  0.000000000  0.077885647

  length of vectors
     5.279518401  5.279518401  5.279518396     0.229285202  0.229285202  0.229285203


 FORCES acting on ions
    electron-ion (+dipol)            ewald-force                    non-local-force                 convergence-correction
 -----------------------------------------------------------------------------------------------
   0.847E-12 0.123E-06 0.174E-13   -.355E-14 -.154E-06 0.225E-13   0.139E-16 0.000E+00 0.139E-16   -.284E-14 -.739E-11 -.225E-13
   0.246E-11 -.123E-06 0.444E-11   0.711E-14 0.154E-06 0.702E-14   -.555E-16 -.139E-16 -.208E-16   0.169E-13 0.737E-11 0.410E-13
   0.676E-13 -.301E-13 -.124E-12   0.142E-12 0.000E+00 0.426E-13   0.000E+00 0.000E+00 0.847E-21   -.291E-13 -.995E-14 0.134E-13
   0.133E-11 0.108E-13 -.142E-11   0.000E+00 0.995E-13 0.853E-13   -.212E-21 0.212E-21 0.847E-21   -.212E-13 0.327E-14 -.245E-13
   0.710E-11 -.167E+02 -.131E-10   -.515E-13 0.176E+02 -.330E-13   -.520E-17 -.930E+00 0.520E-17   0.492E-13 -.465E-02 0.228E-13
   -.145E+02 0.836E+01 0.130E-06   0.153E+02 -.882E+01 -.129E-06   -.806E+00 0.465E+00 0.000E+00   -.403E-02 0.233E-02 0.324E-10
   0.145E+02 0.836E+01 -.130E-06   -.153E+02 -.882E+01 0.129E-06   0.806E+00 0.465E+00 0.139E-16   0.403E-02 0.233E-02 -.324E-10
   -.676E-12 0.167E+02 -.920E-12   -.160E-13 -.176E+02 -.955E-14   0.347E-17 0.930E+00 0.867E-17   -.262E-13 0.465E-02 -.903E-15
   0.145E+02 -.836E+01 -.130E-06   -.153E+02 0.882E+01 0.129E-06   0.806E+00 -.465E+00 -.694E-17   0.403E-02 -.233E-02 -.324E-10
   -.145E+02 -.836E+01 0.130E-06   0.153E+02 0.882E+01 -.129E-06   -.806E+00 -.465E+00 0.139E-16   -.403E-02 -.233E-02 0.325E-10
 -----------------------------------------------------------------------------------------------
   0.819E-11 0.155E-11 -.341E-11   -.533E-14 0.284E-13 -.688E-13   -.222E-15 0.278E-15 0.278E-16   -.325E-13 -.463E-13 0.376E-13
 
 
 POSITION                                       TOTAL-FORCE (eV/Angst)
 -----------------------------------------------------------------------------------
      0.00000      0.00000      3.20983         0.000000      0.000000     -0.000000
      0.00000      0.00000      9.62950         0.000000      0.000000     -0.000000
      0.00000      0.00000      0.00000         0.000000      0.000000     -0.000000
      0.00000      0.00000      6.41967         0.000000      0.000000     -0.000000
      1.54570      0.24212      7.48961         0.000000     -0.000495      0.000000
     -0.56317     -1.45968      7.48961        -0.000428      0.000247     -0.000000
     -0.98254      1.21756      7.48961         0.000428      0.000247     -0.000000
     -1.54570     -0.24212      5.34972         0.000000      0.000495      0.000000
      0.56317      1.45968      5.34972         0.000428     -0.000247     -0.000000
      0.98254     -1.21756      5.34972        -0.000428     -0.000247     -0.000000
 -----------------------------------------------------------------------------------
    total drift:                                0.000000      0.000000     -0.000000


--------------------------------------------------------------------------------------------------------



  FREE ENERGIE OF THE ION-ELECTRON SYSTEM (eV)
  ---------------------------------------------------
  free  energy   TOTEN  =       -81.56880531 eV

  energy  without entropy=      -81.56408362  energy(sigma->0) =      -81.56644446
 


--------------------------------------------------------------------------------------------------------


    POTLOK:  cpu time    0.2320: real time    0.2523


--------------------------------------------------------------------------------------------------------


 writing wavefunctions
     LOOP+:  cpu time  858.9040: real time  861.5728
    4ORBIT:  cpu time    0.0000: real time    0.0000

 total amount of memory used by VASP MPI-rank0   449893. kBytes
=======================================================================

   base      :      30000. kBytes
   nonl-proj :     179036. kBytes
   fftplans  :      20656. kBytes
   grid      :      41602. kBytes
   one-center:        491. kBytes
   wavefun   :     178108. kBytes
 
  
  
 General timing and accounting informations for this job:
 ========================================================
  
                  Total CPU time used (sec):      863.447
                            User time (sec):      818.963
                          System time (sec):       44.484
                         Elapsed time (sec):      868.968
  
                   Maximum memory used (kb):      789476.
                   Average memory used (kb):           0.
  
                          Minor page faults:       107448
                          Major page faults:            0
                 Voluntary context switches:        25005
